
             +---------------------------------------------------+
             |                                                   |
             |                   WANNIER90                       |
             |                                                   |
             +---------------------------------------------------+
             |                                                   |
             |        Welcome to the Maximally-Localized         |
             |        Generalized Wannier Functions code         |
             |            http://www.wannier.org                 |
             |                                                   |
             |                                                   |
             |  Wannier90 Developer Group:                       |
             |    Giovanni Pizzi    (EPFL)                       |
             |    Valerio Vitale    (Cambridge)                  |
             |    David Vanderbilt  (Rutgers University)         |
             |    Nicola Marzari    (EPFL)                       |
             |    Ivo Souza         (Universidad del Pais Vasco) |
             |    Arash A. Mostofi  (Imperial College London)    |
             |    Jonathan R. Yates (University of Oxford)       |
             |                                                   |
             |  For the full list of Wannier90 3.x authors,      |
             |  please check the code documentation and the      |
             |  README on the GitHub page of the code            |
             |                                                   |
             |                                                   |
             |  Please cite                                      |
             |                                                   |
             |  [ref] "Wannier90 as a community code:            |
             |        new features and applications",            |
             |        G. Pizzi et al., J. Phys. Cond. Matt. 32,  |
             |        165902 (2020).                             |
             |        http://doi.org/10.1088/1361-648X/ab51ff    |
             |                                                   |
             |  in any publications arising from the use of      |
             |  this code. For the method please cite            |
             |                                                   |
             |  [ref] "Maximally Localized Generalised Wannier   |
             |         Functions for Composite Energy Bands"     |
             |         N. Marzari and D. Vanderbilt              |
             |         Phys. Rev. B 56 12847 (1997)              |
             |                                                   |
             |  [ref] "Maximally Localized Wannier Functions     |
             |         for Entangled Energy Bands"               |
             |         I. Souza, N. Marzari and D. Vanderbilt    |
             |         Phys. Rev. B 65 035109 (2001)             |
             |                                                   |
             |                                                   |
             | Copyright (c) 1996-2020                           |
             |        The Wannier90 Developer Group and          |
             |        individual contributors                    |
             |                                                   |
             |      Release: 3.1.0        5th March    2020      |
             |                                                   |
             | This program is free software; you can            |
             | redistribute it and/or modify it under the terms  |
             | of the GNU General Public License as published by |
             | the Free Software Foundation; either version 2 of |
             | the License, or (at your option) any later version|
             |                                                   |
             | This program is distributed in the hope that it   |
             | will be useful, but WITHOUT ANY WARRANTY; without |
             | even the implied warranty of MERCHANTABILITY or   |
             | FITNESS FOR A PARTICULAR PURPOSE. See the GNU     |
             | General Public License for more details.          |
             |                                                   |
             | You should have received a copy of the GNU General|
             | Public License along with this program; if not,   |
             | write to the Free Software Foundation, Inc.,      |
             | 675 Mass Ave, Cambridge, MA 02139, USA.           |
             |                                                   |
             +---------------------------------------------------+
             |    Execution started on 19Jun2022 at 11:38:39     |
             +---------------------------------------------------+
 
 ******************************************************************************
 * -> Using CODATA 2006 constant values                                       *
 *    (http://physics.nist.gov/cuu/Constants/index.html)                      *
 * -> Using Bohr value from CODATA                                            *
 ******************************************************************************
 

 Running in serial (with parallel executable)

                                    ------
                                    SYSTEM
                                    ------

                              Lattice Vectors (Ang)
                    a_1     3.858560   0.000000   0.000000
                    a_2     0.000000   3.858560   0.000000
                    a_3     0.000000   0.000000   3.858560

                   Unit Cell Volume:      57.44810  (Ang^3)

                        Reciprocal-Space Vectors (Ang^-1)
                    b_1     1.628376   0.000000   0.000000
                    b_2     0.000000   1.628376   0.000000
                    b_3     0.000000   0.000000   1.628376
  
 *----------------------------------------------------------------------------*
 |   Site       Fractional Coordinate          Cartesian Coordinate (Ang)     |
 +----------------------------------------------------------------------------+
 | Sr   1   0.00000   0.00000   0.00000   |    0.00000   0.00000   0.00000    |
 | V    1   0.50000   0.50000   0.50000   |    1.92928   1.92928   1.92928    |
 | O    1   0.50000   0.50000   0.00000   |    1.92928   1.92928   0.00000    |
 | O    2   0.50000   0.00000   0.50000   |    1.92928   0.00000   1.92928    |
 | O    3   0.00000   0.50000   0.50000   |    0.00000   1.92928   1.92928    |
 *----------------------------------------------------------------------------*
                                -----------
                                PROJECTIONS
                                -----------
  
 +----------------------------------------------------------------------------+
 |     Frac. Coord.   l mr  r        z-axis               x-axis          Z/a |
 +----------------------------------------------------------------------------+
 |  0.50  0.50  0.50  2  2  1  0.000  0.000  1.000  1.000  0.000  0.000   1.0 |
 |  0.50  0.50  0.50  2  3  1  0.000  0.000  1.000  1.000  0.000  0.000   1.0 |
 |  0.50  0.50  0.50  2  5  1  0.000  0.000  1.000  1.000  0.000  0.000   1.0 |
 +----------------------------------------------------------------------------+
  
                                ------------
                                K-POINT GRID
                                ------------
  
             Grid size = 10 x 10 x 10      Total points = 1000
  
 *----------------------------------------------------------------------------*
 | k-point      Fractional Coordinate        Cartesian Coordinate (Ang^-1)    |
 +----------------------------------------------------------------------------+
 |     1    0.00000   0.00000   0.00000   |    0.00000   0.00000   0.00000    |
 |     2    0.00000   0.00000   0.10000   |    0.00000   0.00000   0.16284    |
 |     3    0.00000   0.00000   0.20000   |    0.00000   0.00000   0.32568    |
 |     4    0.00000   0.00000   0.30000   |    0.00000   0.00000   0.48851    |
 |     5    0.00000   0.00000   0.40000   |    0.00000   0.00000   0.65135    |
 |     6    0.00000   0.00000   0.50000   |    0.00000   0.00000   0.81419    |
 |     7    0.00000   0.00000   0.60000   |    0.00000   0.00000   0.97703    |
 |     8    0.00000   0.00000   0.70000   |    0.00000   0.00000   1.13986    |
 |     9    0.00000   0.00000   0.80000   |    0.00000   0.00000   1.30270    |
 |    10    0.00000   0.00000   0.90000   |    0.00000   0.00000   1.46554    |
 |    11    0.00000   0.10000   0.00000   |    0.00000   0.16284   0.00000    |
 |    12    0.00000   0.10000   0.10000   |    0.00000   0.16284   0.16284    |
 |    13    0.00000   0.10000   0.20000   |    0.00000   0.16284   0.32568    |
 |    14    0.00000   0.10000   0.30000   |    0.00000   0.16284   0.48851    |
 |    15    0.00000   0.10000   0.40000   |    0.00000   0.16284   0.65135    |
 |    16    0.00000   0.10000   0.50000   |    0.00000   0.16284   0.81419    |
 |    17    0.00000   0.10000   0.60000   |    0.00000   0.16284   0.97703    |
 |    18    0.00000   0.10000   0.70000   |    0.00000   0.16284   1.13986    |
 |    19    0.00000   0.10000   0.80000   |    0.00000   0.16284   1.30270    |
 |    20    0.00000   0.10000   0.90000   |    0.00000   0.16284   1.46554    |
 |    21    0.00000   0.20000   0.00000   |    0.00000   0.32568   0.00000    |
 |    22    0.00000   0.20000   0.10000   |    0.00000   0.32568   0.16284    |
 |    23    0.00000   0.20000   0.20000   |    0.00000   0.32568   0.32568    |
 |    24    0.00000   0.20000   0.30000   |    0.00000   0.32568   0.48851    |
 |    25    0.00000   0.20000   0.40000   |    0.00000   0.32568   0.65135    |
 |    26    0.00000   0.20000   0.50000   |    0.00000   0.32568   0.81419    |
 |    27    0.00000   0.20000   0.60000   |    0.00000   0.32568   0.97703    |
 |    28    0.00000   0.20000   0.70000   |    0.00000   0.32568   1.13986    |
 |    29    0.00000   0.20000   0.80000   |    0.00000   0.32568   1.30270    |
 |    30    0.00000   0.20000   0.90000   |    0.00000   0.32568   1.46554    |
 |    31    0.00000   0.30000   0.00000   |    0.00000   0.48851   0.00000    |
 |    32    0.00000   0.30000   0.10000   |    0.00000   0.48851   0.16284    |
 |    33    0.00000   0.30000   0.20000   |    0.00000   0.48851   0.32568    |
 |    34    0.00000   0.30000   0.30000   |    0.00000   0.48851   0.48851    |
 |    35    0.00000   0.30000   0.40000   |    0.00000   0.48851   0.65135    |
 |    36    0.00000   0.30000   0.50000   |    0.00000   0.48851   0.81419    |
 |    37    0.00000   0.30000   0.60000   |    0.00000   0.48851   0.97703    |
 |    38    0.00000   0.30000   0.70000   |    0.00000   0.48851   1.13986    |
 |    39    0.00000   0.30000   0.80000   |    0.00000   0.48851   1.30270    |
 |    40    0.00000   0.30000   0.90000   |    0.00000   0.48851   1.46554    |
 |    41    0.00000   0.40000   0.00000   |    0.00000   0.65135   0.00000    |
 |    42    0.00000   0.40000   0.10000   |    0.00000   0.65135   0.16284    |
 |    43    0.00000   0.40000   0.20000   |    0.00000   0.65135   0.32568    |
 |    44    0.00000   0.40000   0.30000   |    0.00000   0.65135   0.48851    |
 |    45    0.00000   0.40000   0.40000   |    0.00000   0.65135   0.65135    |
 |    46    0.00000   0.40000   0.50000   |    0.00000   0.65135   0.81419    |
 |    47    0.00000   0.40000   0.60000   |    0.00000   0.65135   0.97703    |
 |    48    0.00000   0.40000   0.70000   |    0.00000   0.65135   1.13986    |
 |    49    0.00000   0.40000   0.80000   |    0.00000   0.65135   1.30270    |
 |    50    0.00000   0.40000   0.90000   |    0.00000   0.65135   1.46554    |
 |    51    0.00000   0.50000   0.00000   |    0.00000   0.81419   0.00000    |
 |    52    0.00000   0.50000   0.10000   |    0.00000   0.81419   0.16284    |
 |    53    0.00000   0.50000   0.20000   |    0.00000   0.81419   0.32568    |
 |    54    0.00000   0.50000   0.30000   |    0.00000   0.81419   0.48851    |
 |    55    0.00000   0.50000   0.40000   |    0.00000   0.81419   0.65135    |
 |    56    0.00000   0.50000   0.50000   |    0.00000   0.81419   0.81419    |
 |    57    0.00000   0.50000   0.60000   |    0.00000   0.81419   0.97703    |
 |    58    0.00000   0.50000   0.70000   |    0.00000   0.81419   1.13986    |
 |    59    0.00000   0.50000   0.80000   |    0.00000   0.81419   1.30270    |
 |    60    0.00000   0.50000   0.90000   |    0.00000   0.81419   1.46554    |
 |    61    0.00000   0.60000   0.00000   |    0.00000   0.97703   0.00000    |
 |    62    0.00000   0.60000   0.10000   |    0.00000   0.97703   0.16284    |
 |    63    0.00000   0.60000   0.20000   |    0.00000   0.97703   0.32568    |
 |    64    0.00000   0.60000   0.30000   |    0.00000   0.97703   0.48851    |
 |    65    0.00000   0.60000   0.40000   |    0.00000   0.97703   0.65135    |
 |    66    0.00000   0.60000   0.50000   |    0.00000   0.97703   0.81419    |
 |    67    0.00000   0.60000   0.60000   |    0.00000   0.97703   0.97703    |
 |    68    0.00000   0.60000   0.70000   |    0.00000   0.97703   1.13986    |
 |    69    0.00000   0.60000   0.80000   |    0.00000   0.97703   1.30270    |
 |    70    0.00000   0.60000   0.90000   |    0.00000   0.97703   1.46554    |
 |    71    0.00000   0.70000   0.00000   |    0.00000   1.13986   0.00000    |
 |    72    0.00000   0.70000   0.10000   |    0.00000   1.13986   0.16284    |
 |    73    0.00000   0.70000   0.20000   |    0.00000   1.13986   0.32568    |
 |    74    0.00000   0.70000   0.30000   |    0.00000   1.13986   0.48851    |
 |    75    0.00000   0.70000   0.40000   |    0.00000   1.13986   0.65135    |
 |    76    0.00000   0.70000   0.50000   |    0.00000   1.13986   0.81419    |
 |    77    0.00000   0.70000   0.60000   |    0.00000   1.13986   0.97703    |
 |    78    0.00000   0.70000   0.70000   |    0.00000   1.13986   1.13986    |
 |    79    0.00000   0.70000   0.80000   |    0.00000   1.13986   1.30270    |
 |    80    0.00000   0.70000   0.90000   |    0.00000   1.13986   1.46554    |
 |    81    0.00000   0.80000   0.00000   |    0.00000   1.30270   0.00000    |
 |    82    0.00000   0.80000   0.10000   |    0.00000   1.30270   0.16284    |
 |    83    0.00000   0.80000   0.20000   |    0.00000   1.30270   0.32568    |
 |    84    0.00000   0.80000   0.30000   |    0.00000   1.30270   0.48851    |
 |    85    0.00000   0.80000   0.40000   |    0.00000   1.30270   0.65135    |
 |    86    0.00000   0.80000   0.50000   |    0.00000   1.30270   0.81419    |
 |    87    0.00000   0.80000   0.60000   |    0.00000   1.30270   0.97703    |
 |    88    0.00000   0.80000   0.70000   |    0.00000   1.30270   1.13986    |
 |    89    0.00000   0.80000   0.80000   |    0.00000   1.30270   1.30270    |
 |    90    0.00000   0.80000   0.90000   |    0.00000   1.30270   1.46554    |
 |    91    0.00000   0.90000   0.00000   |    0.00000   1.46554   0.00000    |
 |    92    0.00000   0.90000   0.10000   |    0.00000   1.46554   0.16284    |
 |    93    0.00000   0.90000   0.20000   |    0.00000   1.46554   0.32568    |
 |    94    0.00000   0.90000   0.30000   |    0.00000   1.46554   0.48851    |
 |    95    0.00000   0.90000   0.40000   |    0.00000   1.46554   0.65135    |
 |    96    0.00000   0.90000   0.50000   |    0.00000   1.46554   0.81419    |
 |    97    0.00000   0.90000   0.60000   |    0.00000   1.46554   0.97703    |
 |    98    0.00000   0.90000   0.70000   |    0.00000   1.46554   1.13986    |
 |    99    0.00000   0.90000   0.80000   |    0.00000   1.46554   1.30270    |
 |   100    0.00000   0.90000   0.90000   |    0.00000   1.46554   1.46554    |
 |   101    0.10000   0.00000   0.00000   |    0.16284   0.00000   0.00000    |
 |   102    0.10000   0.00000   0.10000   |    0.16284   0.00000   0.16284    |
 |   103    0.10000   0.00000   0.20000   |    0.16284   0.00000   0.32568    |
 |   104    0.10000   0.00000   0.30000   |    0.16284   0.00000   0.48851    |
 |   105    0.10000   0.00000   0.40000   |    0.16284   0.00000   0.65135    |
 |   106    0.10000   0.00000   0.50000   |    0.16284   0.00000   0.81419    |
 |   107    0.10000   0.00000   0.60000   |    0.16284   0.00000   0.97703    |
 |   108    0.10000   0.00000   0.70000   |    0.16284   0.00000   1.13986    |
 |   109    0.10000   0.00000   0.80000   |    0.16284   0.00000   1.30270    |
 |   110    0.10000   0.00000   0.90000   |    0.16284   0.00000   1.46554    |
 |   111    0.10000   0.10000   0.00000   |    0.16284   0.16284   0.00000    |
 |   112    0.10000   0.10000   0.10000   |    0.16284   0.16284   0.16284    |
 |   113    0.10000   0.10000   0.20000   |    0.16284   0.16284   0.32568    |
 |   114    0.10000   0.10000   0.30000   |    0.16284   0.16284   0.48851    |
 |   115    0.10000   0.10000   0.40000   |    0.16284   0.16284   0.65135    |
 |   116    0.10000   0.10000   0.50000   |    0.16284   0.16284   0.81419    |
 |   117    0.10000   0.10000   0.60000   |    0.16284   0.16284   0.97703    |
 |   118    0.10000   0.10000   0.70000   |    0.16284   0.16284   1.13986    |
 |   119    0.10000   0.10000   0.80000   |    0.16284   0.16284   1.30270    |
 |   120    0.10000   0.10000   0.90000   |    0.16284   0.16284   1.46554    |
 |   121    0.10000   0.20000   0.00000   |    0.16284   0.32568   0.00000    |
 |   122    0.10000   0.20000   0.10000   |    0.16284   0.32568   0.16284    |
 |   123    0.10000   0.20000   0.20000   |    0.16284   0.32568   0.32568    |
 |   124    0.10000   0.20000   0.30000   |    0.16284   0.32568   0.48851    |
 |   125    0.10000   0.20000   0.40000   |    0.16284   0.32568   0.65135    |
 |   126    0.10000   0.20000   0.50000   |    0.16284   0.32568   0.81419    |
 |   127    0.10000   0.20000   0.60000   |    0.16284   0.32568   0.97703    |
 |   128    0.10000   0.20000   0.70000   |    0.16284   0.32568   1.13986    |
 |   129    0.10000   0.20000   0.80000   |    0.16284   0.32568   1.30270    |
 |   130    0.10000   0.20000   0.90000   |    0.16284   0.32568   1.46554    |
 |   131    0.10000   0.30000   0.00000   |    0.16284   0.48851   0.00000    |
 |   132    0.10000   0.30000   0.10000   |    0.16284   0.48851   0.16284    |
 |   133    0.10000   0.30000   0.20000   |    0.16284   0.48851   0.32568    |
 |   134    0.10000   0.30000   0.30000   |    0.16284   0.48851   0.48851    |
 |   135    0.10000   0.30000   0.40000   |    0.16284   0.48851   0.65135    |
 |   136    0.10000   0.30000   0.50000   |    0.16284   0.48851   0.81419    |
 |   137    0.10000   0.30000   0.60000   |    0.16284   0.48851   0.97703    |
 |   138    0.10000   0.30000   0.70000   |    0.16284   0.48851   1.13986    |
 |   139    0.10000   0.30000   0.80000   |    0.16284   0.48851   1.30270    |
 |   140    0.10000   0.30000   0.90000   |    0.16284   0.48851   1.46554    |
 |   141    0.10000   0.40000   0.00000   |    0.16284   0.65135   0.00000    |
 |   142    0.10000   0.40000   0.10000   |    0.16284   0.65135   0.16284    |
 |   143    0.10000   0.40000   0.20000   |    0.16284   0.65135   0.32568    |
 |   144    0.10000   0.40000   0.30000   |    0.16284   0.65135   0.48851    |
 |   145    0.10000   0.40000   0.40000   |    0.16284   0.65135   0.65135    |
 |   146    0.10000   0.40000   0.50000   |    0.16284   0.65135   0.81419    |
 |   147    0.10000   0.40000   0.60000   |    0.16284   0.65135   0.97703    |
 |   148    0.10000   0.40000   0.70000   |    0.16284   0.65135   1.13986    |
 |   149    0.10000   0.40000   0.80000   |    0.16284   0.65135   1.30270    |
 |   150    0.10000   0.40000   0.90000   |    0.16284   0.65135   1.46554    |
 |   151    0.10000   0.50000   0.00000   |    0.16284   0.81419   0.00000    |
 |   152    0.10000   0.50000   0.10000   |    0.16284   0.81419   0.16284    |
 |   153    0.10000   0.50000   0.20000   |    0.16284   0.81419   0.32568    |
 |   154    0.10000   0.50000   0.30000   |    0.16284   0.81419   0.48851    |
 |   155    0.10000   0.50000   0.40000   |    0.16284   0.81419   0.65135    |
 |   156    0.10000   0.50000   0.50000   |    0.16284   0.81419   0.81419    |
 |   157    0.10000   0.50000   0.60000   |    0.16284   0.81419   0.97703    |
 |   158    0.10000   0.50000   0.70000   |    0.16284   0.81419   1.13986    |
 |   159    0.10000   0.50000   0.80000   |    0.16284   0.81419   1.30270    |
 |   160    0.10000   0.50000   0.90000   |    0.16284   0.81419   1.46554    |
 |   161    0.10000   0.60000   0.00000   |    0.16284   0.97703   0.00000    |
 |   162    0.10000   0.60000   0.10000   |    0.16284   0.97703   0.16284    |
 |   163    0.10000   0.60000   0.20000   |    0.16284   0.97703   0.32568    |
 |   164    0.10000   0.60000   0.30000   |    0.16284   0.97703   0.48851    |
 |   165    0.10000   0.60000   0.40000   |    0.16284   0.97703   0.65135    |
 |   166    0.10000   0.60000   0.50000   |    0.16284   0.97703   0.81419    |
 |   167    0.10000   0.60000   0.60000   |    0.16284   0.97703   0.97703    |
 |   168    0.10000   0.60000   0.70000   |    0.16284   0.97703   1.13986    |
 |   169    0.10000   0.60000   0.80000   |    0.16284   0.97703   1.30270    |
 |   170    0.10000   0.60000   0.90000   |    0.16284   0.97703   1.46554    |
 |   171    0.10000   0.70000   0.00000   |    0.16284   1.13986   0.00000    |
 |   172    0.10000   0.70000   0.10000   |    0.16284   1.13986   0.16284    |
 |   173    0.10000   0.70000   0.20000   |    0.16284   1.13986   0.32568    |
 |   174    0.10000   0.70000   0.30000   |    0.16284   1.13986   0.48851    |
 |   175    0.10000   0.70000   0.40000   |    0.16284   1.13986   0.65135    |
 |   176    0.10000   0.70000   0.50000   |    0.16284   1.13986   0.81419    |
 |   177    0.10000   0.70000   0.60000   |    0.16284   1.13986   0.97703    |
 |   178    0.10000   0.70000   0.70000   |    0.16284   1.13986   1.13986    |
 |   179    0.10000   0.70000   0.80000   |    0.16284   1.13986   1.30270    |
 |   180    0.10000   0.70000   0.90000   |    0.16284   1.13986   1.46554    |
 |   181    0.10000   0.80000   0.00000   |    0.16284   1.30270   0.00000    |
 |   182    0.10000   0.80000   0.10000   |    0.16284   1.30270   0.16284    |
 |   183    0.10000   0.80000   0.20000   |    0.16284   1.30270   0.32568    |
 |   184    0.10000   0.80000   0.30000   |    0.16284   1.30270   0.48851    |
 |   185    0.10000   0.80000   0.40000   |    0.16284   1.30270   0.65135    |
 |   186    0.10000   0.80000   0.50000   |    0.16284   1.30270   0.81419    |
 |   187    0.10000   0.80000   0.60000   |    0.16284   1.30270   0.97703    |
 |   188    0.10000   0.80000   0.70000   |    0.16284   1.30270   1.13986    |
 |   189    0.10000   0.80000   0.80000   |    0.16284   1.30270   1.30270    |
 |   190    0.10000   0.80000   0.90000   |    0.16284   1.30270   1.46554    |
 |   191    0.10000   0.90000   0.00000   |    0.16284   1.46554   0.00000    |
 |   192    0.10000   0.90000   0.10000   |    0.16284   1.46554   0.16284    |
 |   193    0.10000   0.90000   0.20000   |    0.16284   1.46554   0.32568    |
 |   194    0.10000   0.90000   0.30000   |    0.16284   1.46554   0.48851    |
 |   195    0.10000   0.90000   0.40000   |    0.16284   1.46554   0.65135    |
 |   196    0.10000   0.90000   0.50000   |    0.16284   1.46554   0.81419    |
 |   197    0.10000   0.90000   0.60000   |    0.16284   1.46554   0.97703    |
 |   198    0.10000   0.90000   0.70000   |    0.16284   1.46554   1.13986    |
 |   199    0.10000   0.90000   0.80000   |    0.16284   1.46554   1.30270    |
 |   200    0.10000   0.90000   0.90000   |    0.16284   1.46554   1.46554    |
 |   201    0.20000   0.00000   0.00000   |    0.32568   0.00000   0.00000    |
 |   202    0.20000   0.00000   0.10000   |    0.32568   0.00000   0.16284    |
 |   203    0.20000   0.00000   0.20000   |    0.32568   0.00000   0.32568    |
 |   204    0.20000   0.00000   0.30000   |    0.32568   0.00000   0.48851    |
 |   205    0.20000   0.00000   0.40000   |    0.32568   0.00000   0.65135    |
 |   206    0.20000   0.00000   0.50000   |    0.32568   0.00000   0.81419    |
 |   207    0.20000   0.00000   0.60000   |    0.32568   0.00000   0.97703    |
 |   208    0.20000   0.00000   0.70000   |    0.32568   0.00000   1.13986    |
 |   209    0.20000   0.00000   0.80000   |    0.32568   0.00000   1.30270    |
 |   210    0.20000   0.00000   0.90000   |    0.32568   0.00000   1.46554    |
 |   211    0.20000   0.10000   0.00000   |    0.32568   0.16284   0.00000    |
 |   212    0.20000   0.10000   0.10000   |    0.32568   0.16284   0.16284    |
 |   213    0.20000   0.10000   0.20000   |    0.32568   0.16284   0.32568    |
 |   214    0.20000   0.10000   0.30000   |    0.32568   0.16284   0.48851    |
 |   215    0.20000   0.10000   0.40000   |    0.32568   0.16284   0.65135    |
 |   216    0.20000   0.10000   0.50000   |    0.32568   0.16284   0.81419    |
 |   217    0.20000   0.10000   0.60000   |    0.32568   0.16284   0.97703    |
 |   218    0.20000   0.10000   0.70000   |    0.32568   0.16284   1.13986    |
 |   219    0.20000   0.10000   0.80000   |    0.32568   0.16284   1.30270    |
 |   220    0.20000   0.10000   0.90000   |    0.32568   0.16284   1.46554    |
 |   221    0.20000   0.20000   0.00000   |    0.32568   0.32568   0.00000    |
 |   222    0.20000   0.20000   0.10000   |    0.32568   0.32568   0.16284    |
 |   223    0.20000   0.20000   0.20000   |    0.32568   0.32568   0.32568    |
 |   224    0.20000   0.20000   0.30000   |    0.32568   0.32568   0.48851    |
 |   225    0.20000   0.20000   0.40000   |    0.32568   0.32568   0.65135    |
 |   226    0.20000   0.20000   0.50000   |    0.32568   0.32568   0.81419    |
 |   227    0.20000   0.20000   0.60000   |    0.32568   0.32568   0.97703    |
 |   228    0.20000   0.20000   0.70000   |    0.32568   0.32568   1.13986    |
 |   229    0.20000   0.20000   0.80000   |    0.32568   0.32568   1.30270    |
 |   230    0.20000   0.20000   0.90000   |    0.32568   0.32568   1.46554    |
 |   231    0.20000   0.30000   0.00000   |    0.32568   0.48851   0.00000    |
 |   232    0.20000   0.30000   0.10000   |    0.32568   0.48851   0.16284    |
 |   233    0.20000   0.30000   0.20000   |    0.32568   0.48851   0.32568    |
 |   234    0.20000   0.30000   0.30000   |    0.32568   0.48851   0.48851    |
 |   235    0.20000   0.30000   0.40000   |    0.32568   0.48851   0.65135    |
 |   236    0.20000   0.30000   0.50000   |    0.32568   0.48851   0.81419    |
 |   237    0.20000   0.30000   0.60000   |    0.32568   0.48851   0.97703    |
 |   238    0.20000   0.30000   0.70000   |    0.32568   0.48851   1.13986    |
 |   239    0.20000   0.30000   0.80000   |    0.32568   0.48851   1.30270    |
 |   240    0.20000   0.30000   0.90000   |    0.32568   0.48851   1.46554    |
 |   241    0.20000   0.40000   0.00000   |    0.32568   0.65135   0.00000    |
 |   242    0.20000   0.40000   0.10000   |    0.32568   0.65135   0.16284    |
 |   243    0.20000   0.40000   0.20000   |    0.32568   0.65135   0.32568    |
 |   244    0.20000   0.40000   0.30000   |    0.32568   0.65135   0.48851    |
 |   245    0.20000   0.40000   0.40000   |    0.32568   0.65135   0.65135    |
 |   246    0.20000   0.40000   0.50000   |    0.32568   0.65135   0.81419    |
 |   247    0.20000   0.40000   0.60000   |    0.32568   0.65135   0.97703    |
 |   248    0.20000   0.40000   0.70000   |    0.32568   0.65135   1.13986    |
 |   249    0.20000   0.40000   0.80000   |    0.32568   0.65135   1.30270    |
 |   250    0.20000   0.40000   0.90000   |    0.32568   0.65135   1.46554    |
 |   251    0.20000   0.50000   0.00000   |    0.32568   0.81419   0.00000    |
 |   252    0.20000   0.50000   0.10000   |    0.32568   0.81419   0.16284    |
 |   253    0.20000   0.50000   0.20000   |    0.32568   0.81419   0.32568    |
 |   254    0.20000   0.50000   0.30000   |    0.32568   0.81419   0.48851    |
 |   255    0.20000   0.50000   0.40000   |    0.32568   0.81419   0.65135    |
 |   256    0.20000   0.50000   0.50000   |    0.32568   0.81419   0.81419    |
 |   257    0.20000   0.50000   0.60000   |    0.32568   0.81419   0.97703    |
 |   258    0.20000   0.50000   0.70000   |    0.32568   0.81419   1.13986    |
 |   259    0.20000   0.50000   0.80000   |    0.32568   0.81419   1.30270    |
 |   260    0.20000   0.50000   0.90000   |    0.32568   0.81419   1.46554    |
 |   261    0.20000   0.60000   0.00000   |    0.32568   0.97703   0.00000    |
 |   262    0.20000   0.60000   0.10000   |    0.32568   0.97703   0.16284    |
 |   263    0.20000   0.60000   0.20000   |    0.32568   0.97703   0.32568    |
 |   264    0.20000   0.60000   0.30000   |    0.32568   0.97703   0.48851    |
 |   265    0.20000   0.60000   0.40000   |    0.32568   0.97703   0.65135    |
 |   266    0.20000   0.60000   0.50000   |    0.32568   0.97703   0.81419    |
 |   267    0.20000   0.60000   0.60000   |    0.32568   0.97703   0.97703    |
 |   268    0.20000   0.60000   0.70000   |    0.32568   0.97703   1.13986    |
 |   269    0.20000   0.60000   0.80000   |    0.32568   0.97703   1.30270    |
 |   270    0.20000   0.60000   0.90000   |    0.32568   0.97703   1.46554    |
 |   271    0.20000   0.70000   0.00000   |    0.32568   1.13986   0.00000    |
 |   272    0.20000   0.70000   0.10000   |    0.32568   1.13986   0.16284    |
 |   273    0.20000   0.70000   0.20000   |    0.32568   1.13986   0.32568    |
 |   274    0.20000   0.70000   0.30000   |    0.32568   1.13986   0.48851    |
 |   275    0.20000   0.70000   0.40000   |    0.32568   1.13986   0.65135    |
 |   276    0.20000   0.70000   0.50000   |    0.32568   1.13986   0.81419    |
 |   277    0.20000   0.70000   0.60000   |    0.32568   1.13986   0.97703    |
 |   278    0.20000   0.70000   0.70000   |    0.32568   1.13986   1.13986    |
 |   279    0.20000   0.70000   0.80000   |    0.32568   1.13986   1.30270    |
 |   280    0.20000   0.70000   0.90000   |    0.32568   1.13986   1.46554    |
 |   281    0.20000   0.80000   0.00000   |    0.32568   1.30270   0.00000    |
 |   282    0.20000   0.80000   0.10000   |    0.32568   1.30270   0.16284    |
 |   283    0.20000   0.80000   0.20000   |    0.32568   1.30270   0.32568    |
 |   284    0.20000   0.80000   0.30000   |    0.32568   1.30270   0.48851    |
 |   285    0.20000   0.80000   0.40000   |    0.32568   1.30270   0.65135    |
 |   286    0.20000   0.80000   0.50000   |    0.32568   1.30270   0.81419    |
 |   287    0.20000   0.80000   0.60000   |    0.32568   1.30270   0.97703    |
 |   288    0.20000   0.80000   0.70000   |    0.32568   1.30270   1.13986    |
 |   289    0.20000   0.80000   0.80000   |    0.32568   1.30270   1.30270    |
 |   290    0.20000   0.80000   0.90000   |    0.32568   1.30270   1.46554    |
 |   291    0.20000   0.90000   0.00000   |    0.32568   1.46554   0.00000    |
 |   292    0.20000   0.90000   0.10000   |    0.32568   1.46554   0.16284    |
 |   293    0.20000   0.90000   0.20000   |    0.32568   1.46554   0.32568    |
 |   294    0.20000   0.90000   0.30000   |    0.32568   1.46554   0.48851    |
 |   295    0.20000   0.90000   0.40000   |    0.32568   1.46554   0.65135    |
 |   296    0.20000   0.90000   0.50000   |    0.32568   1.46554   0.81419    |
 |   297    0.20000   0.90000   0.60000   |    0.32568   1.46554   0.97703    |
 |   298    0.20000   0.90000   0.70000   |    0.32568   1.46554   1.13986    |
 |   299    0.20000   0.90000   0.80000   |    0.32568   1.46554   1.30270    |
 |   300    0.20000   0.90000   0.90000   |    0.32568   1.46554   1.46554    |
 |   301    0.30000   0.00000   0.00000   |    0.48851   0.00000   0.00000    |
 |   302    0.30000   0.00000   0.10000   |    0.48851   0.00000   0.16284    |
 |   303    0.30000   0.00000   0.20000   |    0.48851   0.00000   0.32568    |
 |   304    0.30000   0.00000   0.30000   |    0.48851   0.00000   0.48851    |
 |   305    0.30000   0.00000   0.40000   |    0.48851   0.00000   0.65135    |
 |   306    0.30000   0.00000   0.50000   |    0.48851   0.00000   0.81419    |
 |   307    0.30000   0.00000   0.60000   |    0.48851   0.00000   0.97703    |
 |   308    0.30000   0.00000   0.70000   |    0.48851   0.00000   1.13986    |
 |   309    0.30000   0.00000   0.80000   |    0.48851   0.00000   1.30270    |
 |   310    0.30000   0.00000   0.90000   |    0.48851   0.00000   1.46554    |
 |   311    0.30000   0.10000   0.00000   |    0.48851   0.16284   0.00000    |
 |   312    0.30000   0.10000   0.10000   |    0.48851   0.16284   0.16284    |
 |   313    0.30000   0.10000   0.20000   |    0.48851   0.16284   0.32568    |
 |   314    0.30000   0.10000   0.30000   |    0.48851   0.16284   0.48851    |
 |   315    0.30000   0.10000   0.40000   |    0.48851   0.16284   0.65135    |
 |   316    0.30000   0.10000   0.50000   |    0.48851   0.16284   0.81419    |
 |   317    0.30000   0.10000   0.60000   |    0.48851   0.16284   0.97703    |
 |   318    0.30000   0.10000   0.70000   |    0.48851   0.16284   1.13986    |
 |   319    0.30000   0.10000   0.80000   |    0.48851   0.16284   1.30270    |
 |   320    0.30000   0.10000   0.90000   |    0.48851   0.16284   1.46554    |
 |   321    0.30000   0.20000   0.00000   |    0.48851   0.32568   0.00000    |
 |   322    0.30000   0.20000   0.10000   |    0.48851   0.32568   0.16284    |
 |   323    0.30000   0.20000   0.20000   |    0.48851   0.32568   0.32568    |
 |   324    0.30000   0.20000   0.30000   |    0.48851   0.32568   0.48851    |
 |   325    0.30000   0.20000   0.40000   |    0.48851   0.32568   0.65135    |
 |   326    0.30000   0.20000   0.50000   |    0.48851   0.32568   0.81419    |
 |   327    0.30000   0.20000   0.60000   |    0.48851   0.32568   0.97703    |
 |   328    0.30000   0.20000   0.70000   |    0.48851   0.32568   1.13986    |
 |   329    0.30000   0.20000   0.80000   |    0.48851   0.32568   1.30270    |
 |   330    0.30000   0.20000   0.90000   |    0.48851   0.32568   1.46554    |
 |   331    0.30000   0.30000   0.00000   |    0.48851   0.48851   0.00000    |
 |   332    0.30000   0.30000   0.10000   |    0.48851   0.48851   0.16284    |
 |   333    0.30000   0.30000   0.20000   |    0.48851   0.48851   0.32568    |
 |   334    0.30000   0.30000   0.30000   |    0.48851   0.48851   0.48851    |
 |   335    0.30000   0.30000   0.40000   |    0.48851   0.48851   0.65135    |
 |   336    0.30000   0.30000   0.50000   |    0.48851   0.48851   0.81419    |
 |   337    0.30000   0.30000   0.60000   |    0.48851   0.48851   0.97703    |
 |   338    0.30000   0.30000   0.70000   |    0.48851   0.48851   1.13986    |
 |   339    0.30000   0.30000   0.80000   |    0.48851   0.48851   1.30270    |
 |   340    0.30000   0.30000   0.90000   |    0.48851   0.48851   1.46554    |
 |   341    0.30000   0.40000   0.00000   |    0.48851   0.65135   0.00000    |
 |   342    0.30000   0.40000   0.10000   |    0.48851   0.65135   0.16284    |
 |   343    0.30000   0.40000   0.20000   |    0.48851   0.65135   0.32568    |
 |   344    0.30000   0.40000   0.30000   |    0.48851   0.65135   0.48851    |
 |   345    0.30000   0.40000   0.40000   |    0.48851   0.65135   0.65135    |
 |   346    0.30000   0.40000   0.50000   |    0.48851   0.65135   0.81419    |
 |   347    0.30000   0.40000   0.60000   |    0.48851   0.65135   0.97703    |
 |   348    0.30000   0.40000   0.70000   |    0.48851   0.65135   1.13986    |
 |   349    0.30000   0.40000   0.80000   |    0.48851   0.65135   1.30270    |
 |   350    0.30000   0.40000   0.90000   |    0.48851   0.65135   1.46554    |
 |   351    0.30000   0.50000   0.00000   |    0.48851   0.81419   0.00000    |
 |   352    0.30000   0.50000   0.10000   |    0.48851   0.81419   0.16284    |
 |   353    0.30000   0.50000   0.20000   |    0.48851   0.81419   0.32568    |
 |   354    0.30000   0.50000   0.30000   |    0.48851   0.81419   0.48851    |
 |   355    0.30000   0.50000   0.40000   |    0.48851   0.81419   0.65135    |
 |   356    0.30000   0.50000   0.50000   |    0.48851   0.81419   0.81419    |
 |   357    0.30000   0.50000   0.60000   |    0.48851   0.81419   0.97703    |
 |   358    0.30000   0.50000   0.70000   |    0.48851   0.81419   1.13986    |
 |   359    0.30000   0.50000   0.80000   |    0.48851   0.81419   1.30270    |
 |   360    0.30000   0.50000   0.90000   |    0.48851   0.81419   1.46554    |
 |   361    0.30000   0.60000   0.00000   |    0.48851   0.97703   0.00000    |
 |   362    0.30000   0.60000   0.10000   |    0.48851   0.97703   0.16284    |
 |   363    0.30000   0.60000   0.20000   |    0.48851   0.97703   0.32568    |
 |   364    0.30000   0.60000   0.30000   |    0.48851   0.97703   0.48851    |
 |   365    0.30000   0.60000   0.40000   |    0.48851   0.97703   0.65135    |
 |   366    0.30000   0.60000   0.50000   |    0.48851   0.97703   0.81419    |
 |   367    0.30000   0.60000   0.60000   |    0.48851   0.97703   0.97703    |
 |   368    0.30000   0.60000   0.70000   |    0.48851   0.97703   1.13986    |
 |   369    0.30000   0.60000   0.80000   |    0.48851   0.97703   1.30270    |
 |   370    0.30000   0.60000   0.90000   |    0.48851   0.97703   1.46554    |
 |   371    0.30000   0.70000   0.00000   |    0.48851   1.13986   0.00000    |
 |   372    0.30000   0.70000   0.10000   |    0.48851   1.13986   0.16284    |
 |   373    0.30000   0.70000   0.20000   |    0.48851   1.13986   0.32568    |
 |   374    0.30000   0.70000   0.30000   |    0.48851   1.13986   0.48851    |
 |   375    0.30000   0.70000   0.40000   |    0.48851   1.13986   0.65135    |
 |   376    0.30000   0.70000   0.50000   |    0.48851   1.13986   0.81419    |
 |   377    0.30000   0.70000   0.60000   |    0.48851   1.13986   0.97703    |
 |   378    0.30000   0.70000   0.70000   |    0.48851   1.13986   1.13986    |
 |   379    0.30000   0.70000   0.80000   |    0.48851   1.13986   1.30270    |
 |   380    0.30000   0.70000   0.90000   |    0.48851   1.13986   1.46554    |
 |   381    0.30000   0.80000   0.00000   |    0.48851   1.30270   0.00000    |
 |   382    0.30000   0.80000   0.10000   |    0.48851   1.30270   0.16284    |
 |   383    0.30000   0.80000   0.20000   |    0.48851   1.30270   0.32568    |
 |   384    0.30000   0.80000   0.30000   |    0.48851   1.30270   0.48851    |
 |   385    0.30000   0.80000   0.40000   |    0.48851   1.30270   0.65135    |
 |   386    0.30000   0.80000   0.50000   |    0.48851   1.30270   0.81419    |
 |   387    0.30000   0.80000   0.60000   |    0.48851   1.30270   0.97703    |
 |   388    0.30000   0.80000   0.70000   |    0.48851   1.30270   1.13986    |
 |   389    0.30000   0.80000   0.80000   |    0.48851   1.30270   1.30270    |
 |   390    0.30000   0.80000   0.90000   |    0.48851   1.30270   1.46554    |
 |   391    0.30000   0.90000   0.00000   |    0.48851   1.46554   0.00000    |
 |   392    0.30000   0.90000   0.10000   |    0.48851   1.46554   0.16284    |
 |   393    0.30000   0.90000   0.20000   |    0.48851   1.46554   0.32568    |
 |   394    0.30000   0.90000   0.30000   |    0.48851   1.46554   0.48851    |
 |   395    0.30000   0.90000   0.40000   |    0.48851   1.46554   0.65135    |
 |   396    0.30000   0.90000   0.50000   |    0.48851   1.46554   0.81419    |
 |   397    0.30000   0.90000   0.60000   |    0.48851   1.46554   0.97703    |
 |   398    0.30000   0.90000   0.70000   |    0.48851   1.46554   1.13986    |
 |   399    0.30000   0.90000   0.80000   |    0.48851   1.46554   1.30270    |
 |   400    0.30000   0.90000   0.90000   |    0.48851   1.46554   1.46554    |
 |   401    0.40000   0.00000   0.00000   |    0.65135   0.00000   0.00000    |
 |   402    0.40000   0.00000   0.10000   |    0.65135   0.00000   0.16284    |
 |   403    0.40000   0.00000   0.20000   |    0.65135   0.00000   0.32568    |
 |   404    0.40000   0.00000   0.30000   |    0.65135   0.00000   0.48851    |
 |   405    0.40000   0.00000   0.40000   |    0.65135   0.00000   0.65135    |
 |   406    0.40000   0.00000   0.50000   |    0.65135   0.00000   0.81419    |
 |   407    0.40000   0.00000   0.60000   |    0.65135   0.00000   0.97703    |
 |   408    0.40000   0.00000   0.70000   |    0.65135   0.00000   1.13986    |
 |   409    0.40000   0.00000   0.80000   |    0.65135   0.00000   1.30270    |
 |   410    0.40000   0.00000   0.90000   |    0.65135   0.00000   1.46554    |
 |   411    0.40000   0.10000   0.00000   |    0.65135   0.16284   0.00000    |
 |   412    0.40000   0.10000   0.10000   |    0.65135   0.16284   0.16284    |
 |   413    0.40000   0.10000   0.20000   |    0.65135   0.16284   0.32568    |
 |   414    0.40000   0.10000   0.30000   |    0.65135   0.16284   0.48851    |
 |   415    0.40000   0.10000   0.40000   |    0.65135   0.16284   0.65135    |
 |   416    0.40000   0.10000   0.50000   |    0.65135   0.16284   0.81419    |
 |   417    0.40000   0.10000   0.60000   |    0.65135   0.16284   0.97703    |
 |   418    0.40000   0.10000   0.70000   |    0.65135   0.16284   1.13986    |
 |   419    0.40000   0.10000   0.80000   |    0.65135   0.16284   1.30270    |
 |   420    0.40000   0.10000   0.90000   |    0.65135   0.16284   1.46554    |
 |   421    0.40000   0.20000   0.00000   |    0.65135   0.32568   0.00000    |
 |   422    0.40000   0.20000   0.10000   |    0.65135   0.32568   0.16284    |
 |   423    0.40000   0.20000   0.20000   |    0.65135   0.32568   0.32568    |
 |   424    0.40000   0.20000   0.30000   |    0.65135   0.32568   0.48851    |
 |   425    0.40000   0.20000   0.40000   |    0.65135   0.32568   0.65135    |
 |   426    0.40000   0.20000   0.50000   |    0.65135   0.32568   0.81419    |
 |   427    0.40000   0.20000   0.60000   |    0.65135   0.32568   0.97703    |
 |   428    0.40000   0.20000   0.70000   |    0.65135   0.32568   1.13986    |
 |   429    0.40000   0.20000   0.80000   |    0.65135   0.32568   1.30270    |
 |   430    0.40000   0.20000   0.90000   |    0.65135   0.32568   1.46554    |
 |   431    0.40000   0.30000   0.00000   |    0.65135   0.48851   0.00000    |
 |   432    0.40000   0.30000   0.10000   |    0.65135   0.48851   0.16284    |
 |   433    0.40000   0.30000   0.20000   |    0.65135   0.48851   0.32568    |
 |   434    0.40000   0.30000   0.30000   |    0.65135   0.48851   0.48851    |
 |   435    0.40000   0.30000   0.40000   |    0.65135   0.48851   0.65135    |
 |   436    0.40000   0.30000   0.50000   |    0.65135   0.48851   0.81419    |
 |   437    0.40000   0.30000   0.60000   |    0.65135   0.48851   0.97703    |
 |   438    0.40000   0.30000   0.70000   |    0.65135   0.48851   1.13986    |
 |   439    0.40000   0.30000   0.80000   |    0.65135   0.48851   1.30270    |
 |   440    0.40000   0.30000   0.90000   |    0.65135   0.48851   1.46554    |
 |   441    0.40000   0.40000   0.00000   |    0.65135   0.65135   0.00000    |
 |   442    0.40000   0.40000   0.10000   |    0.65135   0.65135   0.16284    |
 |   443    0.40000   0.40000   0.20000   |    0.65135   0.65135   0.32568    |
 |   444    0.40000   0.40000   0.30000   |    0.65135   0.65135   0.48851    |
 |   445    0.40000   0.40000   0.40000   |    0.65135   0.65135   0.65135    |
 |   446    0.40000   0.40000   0.50000   |    0.65135   0.65135   0.81419    |
 |   447    0.40000   0.40000   0.60000   |    0.65135   0.65135   0.97703    |
 |   448    0.40000   0.40000   0.70000   |    0.65135   0.65135   1.13986    |
 |   449    0.40000   0.40000   0.80000   |    0.65135   0.65135   1.30270    |
 |   450    0.40000   0.40000   0.90000   |    0.65135   0.65135   1.46554    |
 |   451    0.40000   0.50000   0.00000   |    0.65135   0.81419   0.00000    |
 |   452    0.40000   0.50000   0.10000   |    0.65135   0.81419   0.16284    |
 |   453    0.40000   0.50000   0.20000   |    0.65135   0.81419   0.32568    |
 |   454    0.40000   0.50000   0.30000   |    0.65135   0.81419   0.48851    |
 |   455    0.40000   0.50000   0.40000   |    0.65135   0.81419   0.65135    |
 |   456    0.40000   0.50000   0.50000   |    0.65135   0.81419   0.81419    |
 |   457    0.40000   0.50000   0.60000   |    0.65135   0.81419   0.97703    |
 |   458    0.40000   0.50000   0.70000   |    0.65135   0.81419   1.13986    |
 |   459    0.40000   0.50000   0.80000   |    0.65135   0.81419   1.30270    |
 |   460    0.40000   0.50000   0.90000   |    0.65135   0.81419   1.46554    |
 |   461    0.40000   0.60000   0.00000   |    0.65135   0.97703   0.00000    |
 |   462    0.40000   0.60000   0.10000   |    0.65135   0.97703   0.16284    |
 |   463    0.40000   0.60000   0.20000   |    0.65135   0.97703   0.32568    |
 |   464    0.40000   0.60000   0.30000   |    0.65135   0.97703   0.48851    |
 |   465    0.40000   0.60000   0.40000   |    0.65135   0.97703   0.65135    |
 |   466    0.40000   0.60000   0.50000   |    0.65135   0.97703   0.81419    |
 |   467    0.40000   0.60000   0.60000   |    0.65135   0.97703   0.97703    |
 |   468    0.40000   0.60000   0.70000   |    0.65135   0.97703   1.13986    |
 |   469    0.40000   0.60000   0.80000   |    0.65135   0.97703   1.30270    |
 |   470    0.40000   0.60000   0.90000   |    0.65135   0.97703   1.46554    |
 |   471    0.40000   0.70000   0.00000   |    0.65135   1.13986   0.00000    |
 |   472    0.40000   0.70000   0.10000   |    0.65135   1.13986   0.16284    |
 |   473    0.40000   0.70000   0.20000   |    0.65135   1.13986   0.32568    |
 |   474    0.40000   0.70000   0.30000   |    0.65135   1.13986   0.48851    |
 |   475    0.40000   0.70000   0.40000   |    0.65135   1.13986   0.65135    |
 |   476    0.40000   0.70000   0.50000   |    0.65135   1.13986   0.81419    |
 |   477    0.40000   0.70000   0.60000   |    0.65135   1.13986   0.97703    |
 |   478    0.40000   0.70000   0.70000   |    0.65135   1.13986   1.13986    |
 |   479    0.40000   0.70000   0.80000   |    0.65135   1.13986   1.30270    |
 |   480    0.40000   0.70000   0.90000   |    0.65135   1.13986   1.46554    |
 |   481    0.40000   0.80000   0.00000   |    0.65135   1.30270   0.00000    |
 |   482    0.40000   0.80000   0.10000   |    0.65135   1.30270   0.16284    |
 |   483    0.40000   0.80000   0.20000   |    0.65135   1.30270   0.32568    |
 |   484    0.40000   0.80000   0.30000   |    0.65135   1.30270   0.48851    |
 |   485    0.40000   0.80000   0.40000   |    0.65135   1.30270   0.65135    |
 |   486    0.40000   0.80000   0.50000   |    0.65135   1.30270   0.81419    |
 |   487    0.40000   0.80000   0.60000   |    0.65135   1.30270   0.97703    |
 |   488    0.40000   0.80000   0.70000   |    0.65135   1.30270   1.13986    |
 |   489    0.40000   0.80000   0.80000   |    0.65135   1.30270   1.30270    |
 |   490    0.40000   0.80000   0.90000   |    0.65135   1.30270   1.46554    |
 |   491    0.40000   0.90000   0.00000   |    0.65135   1.46554   0.00000    |
 |   492    0.40000   0.90000   0.10000   |    0.65135   1.46554   0.16284    |
 |   493    0.40000   0.90000   0.20000   |    0.65135   1.46554   0.32568    |
 |   494    0.40000   0.90000   0.30000   |    0.65135   1.46554   0.48851    |
 |   495    0.40000   0.90000   0.40000   |    0.65135   1.46554   0.65135    |
 |   496    0.40000   0.90000   0.50000   |    0.65135   1.46554   0.81419    |
 |   497    0.40000   0.90000   0.60000   |    0.65135   1.46554   0.97703    |
 |   498    0.40000   0.90000   0.70000   |    0.65135   1.46554   1.13986    |
 |   499    0.40000   0.90000   0.80000   |    0.65135   1.46554   1.30270    |
 |   500    0.40000   0.90000   0.90000   |    0.65135   1.46554   1.46554    |
 |   501    0.50000   0.00000   0.00000   |    0.81419   0.00000   0.00000    |
 |   502    0.50000   0.00000   0.10000   |    0.81419   0.00000   0.16284    |
 |   503    0.50000   0.00000   0.20000   |    0.81419   0.00000   0.32568    |
 |   504    0.50000   0.00000   0.30000   |    0.81419   0.00000   0.48851    |
 |   505    0.50000   0.00000   0.40000   |    0.81419   0.00000   0.65135    |
 |   506    0.50000   0.00000   0.50000   |    0.81419   0.00000   0.81419    |
 |   507    0.50000   0.00000   0.60000   |    0.81419   0.00000   0.97703    |
 |   508    0.50000   0.00000   0.70000   |    0.81419   0.00000   1.13986    |
 |   509    0.50000   0.00000   0.80000   |    0.81419   0.00000   1.30270    |
 |   510    0.50000   0.00000   0.90000   |    0.81419   0.00000   1.46554    |
 |   511    0.50000   0.10000   0.00000   |    0.81419   0.16284   0.00000    |
 |   512    0.50000   0.10000   0.10000   |    0.81419   0.16284   0.16284    |
 |   513    0.50000   0.10000   0.20000   |    0.81419   0.16284   0.32568    |
 |   514    0.50000   0.10000   0.30000   |    0.81419   0.16284   0.48851    |
 |   515    0.50000   0.10000   0.40000   |    0.81419   0.16284   0.65135    |
 |   516    0.50000   0.10000   0.50000   |    0.81419   0.16284   0.81419    |
 |   517    0.50000   0.10000   0.60000   |    0.81419   0.16284   0.97703    |
 |   518    0.50000   0.10000   0.70000   |    0.81419   0.16284   1.13986    |
 |   519    0.50000   0.10000   0.80000   |    0.81419   0.16284   1.30270    |
 |   520    0.50000   0.10000   0.90000   |    0.81419   0.16284   1.46554    |
 |   521    0.50000   0.20000   0.00000   |    0.81419   0.32568   0.00000    |
 |   522    0.50000   0.20000   0.10000   |    0.81419   0.32568   0.16284    |
 |   523    0.50000   0.20000   0.20000   |    0.81419   0.32568   0.32568    |
 |   524    0.50000   0.20000   0.30000   |    0.81419   0.32568   0.48851    |
 |   525    0.50000   0.20000   0.40000   |    0.81419   0.32568   0.65135    |
 |   526    0.50000   0.20000   0.50000   |    0.81419   0.32568   0.81419    |
 |   527    0.50000   0.20000   0.60000   |    0.81419   0.32568   0.97703    |
 |   528    0.50000   0.20000   0.70000   |    0.81419   0.32568   1.13986    |
 |   529    0.50000   0.20000   0.80000   |    0.81419   0.32568   1.30270    |
 |   530    0.50000   0.20000   0.90000   |    0.81419   0.32568   1.46554    |
 |   531    0.50000   0.30000   0.00000   |    0.81419   0.48851   0.00000    |
 |   532    0.50000   0.30000   0.10000   |    0.81419   0.48851   0.16284    |
 |   533    0.50000   0.30000   0.20000   |    0.81419   0.48851   0.32568    |
 |   534    0.50000   0.30000   0.30000   |    0.81419   0.48851   0.48851    |
 |   535    0.50000   0.30000   0.40000   |    0.81419   0.48851   0.65135    |
 |   536    0.50000   0.30000   0.50000   |    0.81419   0.48851   0.81419    |
 |   537    0.50000   0.30000   0.60000   |    0.81419   0.48851   0.97703    |
 |   538    0.50000   0.30000   0.70000   |    0.81419   0.48851   1.13986    |
 |   539    0.50000   0.30000   0.80000   |    0.81419   0.48851   1.30270    |
 |   540    0.50000   0.30000   0.90000   |    0.81419   0.48851   1.46554    |
 |   541    0.50000   0.40000   0.00000   |    0.81419   0.65135   0.00000    |
 |   542    0.50000   0.40000   0.10000   |    0.81419   0.65135   0.16284    |
 |   543    0.50000   0.40000   0.20000   |    0.81419   0.65135   0.32568    |
 |   544    0.50000   0.40000   0.30000   |    0.81419   0.65135   0.48851    |
 |   545    0.50000   0.40000   0.40000   |    0.81419   0.65135   0.65135    |
 |   546    0.50000   0.40000   0.50000   |    0.81419   0.65135   0.81419    |
 |   547    0.50000   0.40000   0.60000   |    0.81419   0.65135   0.97703    |
 |   548    0.50000   0.40000   0.70000   |    0.81419   0.65135   1.13986    |
 |   549    0.50000   0.40000   0.80000   |    0.81419   0.65135   1.30270    |
 |   550    0.50000   0.40000   0.90000   |    0.81419   0.65135   1.46554    |
 |   551    0.50000   0.50000   0.00000   |    0.81419   0.81419   0.00000    |
 |   552    0.50000   0.50000   0.10000   |    0.81419   0.81419   0.16284    |
 |   553    0.50000   0.50000   0.20000   |    0.81419   0.81419   0.32568    |
 |   554    0.50000   0.50000   0.30000   |    0.81419   0.81419   0.48851    |
 |   555    0.50000   0.50000   0.40000   |    0.81419   0.81419   0.65135    |
 |   556    0.50000   0.50000   0.50000   |    0.81419   0.81419   0.81419    |
 |   557    0.50000   0.50000   0.60000   |    0.81419   0.81419   0.97703    |
 |   558    0.50000   0.50000   0.70000   |    0.81419   0.81419   1.13986    |
 |   559    0.50000   0.50000   0.80000   |    0.81419   0.81419   1.30270    |
 |   560    0.50000   0.50000   0.90000   |    0.81419   0.81419   1.46554    |
 |   561    0.50000   0.60000   0.00000   |    0.81419   0.97703   0.00000    |
 |   562    0.50000   0.60000   0.10000   |    0.81419   0.97703   0.16284    |
 |   563    0.50000   0.60000   0.20000   |    0.81419   0.97703   0.32568    |
 |   564    0.50000   0.60000   0.30000   |    0.81419   0.97703   0.48851    |
 |   565    0.50000   0.60000   0.40000   |    0.81419   0.97703   0.65135    |
 |   566    0.50000   0.60000   0.50000   |    0.81419   0.97703   0.81419    |
 |   567    0.50000   0.60000   0.60000   |    0.81419   0.97703   0.97703    |
 |   568    0.50000   0.60000   0.70000   |    0.81419   0.97703   1.13986    |
 |   569    0.50000   0.60000   0.80000   |    0.81419   0.97703   1.30270    |
 |   570    0.50000   0.60000   0.90000   |    0.81419   0.97703   1.46554    |
 |   571    0.50000   0.70000   0.00000   |    0.81419   1.13986   0.00000    |
 |   572    0.50000   0.70000   0.10000   |    0.81419   1.13986   0.16284    |
 |   573    0.50000   0.70000   0.20000   |    0.81419   1.13986   0.32568    |
 |   574    0.50000   0.70000   0.30000   |    0.81419   1.13986   0.48851    |
 |   575    0.50000   0.70000   0.40000   |    0.81419   1.13986   0.65135    |
 |   576    0.50000   0.70000   0.50000   |    0.81419   1.13986   0.81419    |
 |   577    0.50000   0.70000   0.60000   |    0.81419   1.13986   0.97703    |
 |   578    0.50000   0.70000   0.70000   |    0.81419   1.13986   1.13986    |
 |   579    0.50000   0.70000   0.80000   |    0.81419   1.13986   1.30270    |
 |   580    0.50000   0.70000   0.90000   |    0.81419   1.13986   1.46554    |
 |   581    0.50000   0.80000   0.00000   |    0.81419   1.30270   0.00000    |
 |   582    0.50000   0.80000   0.10000   |    0.81419   1.30270   0.16284    |
 |   583    0.50000   0.80000   0.20000   |    0.81419   1.30270   0.32568    |
 |   584    0.50000   0.80000   0.30000   |    0.81419   1.30270   0.48851    |
 |   585    0.50000   0.80000   0.40000   |    0.81419   1.30270   0.65135    |
 |   586    0.50000   0.80000   0.50000   |    0.81419   1.30270   0.81419    |
 |   587    0.50000   0.80000   0.60000   |    0.81419   1.30270   0.97703    |
 |   588    0.50000   0.80000   0.70000   |    0.81419   1.30270   1.13986    |
 |   589    0.50000   0.80000   0.80000   |    0.81419   1.30270   1.30270    |
 |   590    0.50000   0.80000   0.90000   |    0.81419   1.30270   1.46554    |
 |   591    0.50000   0.90000   0.00000   |    0.81419   1.46554   0.00000    |
 |   592    0.50000   0.90000   0.10000   |    0.81419   1.46554   0.16284    |
 |   593    0.50000   0.90000   0.20000   |    0.81419   1.46554   0.32568    |
 |   594    0.50000   0.90000   0.30000   |    0.81419   1.46554   0.48851    |
 |   595    0.50000   0.90000   0.40000   |    0.81419   1.46554   0.65135    |
 |   596    0.50000   0.90000   0.50000   |    0.81419   1.46554   0.81419    |
 |   597    0.50000   0.90000   0.60000   |    0.81419   1.46554   0.97703    |
 |   598    0.50000   0.90000   0.70000   |    0.81419   1.46554   1.13986    |
 |   599    0.50000   0.90000   0.80000   |    0.81419   1.46554   1.30270    |
 |   600    0.50000   0.90000   0.90000   |    0.81419   1.46554   1.46554    |
 |   601    0.60000   0.00000   0.00000   |    0.97703   0.00000   0.00000    |
 |   602    0.60000   0.00000   0.10000   |    0.97703   0.00000   0.16284    |
 |   603    0.60000   0.00000   0.20000   |    0.97703   0.00000   0.32568    |
 |   604    0.60000   0.00000   0.30000   |    0.97703   0.00000   0.48851    |
 |   605    0.60000   0.00000   0.40000   |    0.97703   0.00000   0.65135    |
 |   606    0.60000   0.00000   0.50000   |    0.97703   0.00000   0.81419    |
 |   607    0.60000   0.00000   0.60000   |    0.97703   0.00000   0.97703    |
 |   608    0.60000   0.00000   0.70000   |    0.97703   0.00000   1.13986    |
 |   609    0.60000   0.00000   0.80000   |    0.97703   0.00000   1.30270    |
 |   610    0.60000   0.00000   0.90000   |    0.97703   0.00000   1.46554    |
 |   611    0.60000   0.10000   0.00000   |    0.97703   0.16284   0.00000    |
 |   612    0.60000   0.10000   0.10000   |    0.97703   0.16284   0.16284    |
 |   613    0.60000   0.10000   0.20000   |    0.97703   0.16284   0.32568    |
 |   614    0.60000   0.10000   0.30000   |    0.97703   0.16284   0.48851    |
 |   615    0.60000   0.10000   0.40000   |    0.97703   0.16284   0.65135    |
 |   616    0.60000   0.10000   0.50000   |    0.97703   0.16284   0.81419    |
 |   617    0.60000   0.10000   0.60000   |    0.97703   0.16284   0.97703    |
 |   618    0.60000   0.10000   0.70000   |    0.97703   0.16284   1.13986    |
 |   619    0.60000   0.10000   0.80000   |    0.97703   0.16284   1.30270    |
 |   620    0.60000   0.10000   0.90000   |    0.97703   0.16284   1.46554    |
 |   621    0.60000   0.20000   0.00000   |    0.97703   0.32568   0.00000    |
 |   622    0.60000   0.20000   0.10000   |    0.97703   0.32568   0.16284    |
 |   623    0.60000   0.20000   0.20000   |    0.97703   0.32568   0.32568    |
 |   624    0.60000   0.20000   0.30000   |    0.97703   0.32568   0.48851    |
 |   625    0.60000   0.20000   0.40000   |    0.97703   0.32568   0.65135    |
 |   626    0.60000   0.20000   0.50000   |    0.97703   0.32568   0.81419    |
 |   627    0.60000   0.20000   0.60000   |    0.97703   0.32568   0.97703    |
 |   628    0.60000   0.20000   0.70000   |    0.97703   0.32568   1.13986    |
 |   629    0.60000   0.20000   0.80000   |    0.97703   0.32568   1.30270    |
 |   630    0.60000   0.20000   0.90000   |    0.97703   0.32568   1.46554    |
 |   631    0.60000   0.30000   0.00000   |    0.97703   0.48851   0.00000    |
 |   632    0.60000   0.30000   0.10000   |    0.97703   0.48851   0.16284    |
 |   633    0.60000   0.30000   0.20000   |    0.97703   0.48851   0.32568    |
 |   634    0.60000   0.30000   0.30000   |    0.97703   0.48851   0.48851    |
 |   635    0.60000   0.30000   0.40000   |    0.97703   0.48851   0.65135    |
 |   636    0.60000   0.30000   0.50000   |    0.97703   0.48851   0.81419    |
 |   637    0.60000   0.30000   0.60000   |    0.97703   0.48851   0.97703    |
 |   638    0.60000   0.30000   0.70000   |    0.97703   0.48851   1.13986    |
 |   639    0.60000   0.30000   0.80000   |    0.97703   0.48851   1.30270    |
 |   640    0.60000   0.30000   0.90000   |    0.97703   0.48851   1.46554    |
 |   641    0.60000   0.40000   0.00000   |    0.97703   0.65135   0.00000    |
 |   642    0.60000   0.40000   0.10000   |    0.97703   0.65135   0.16284    |
 |   643    0.60000   0.40000   0.20000   |    0.97703   0.65135   0.32568    |
 |   644    0.60000   0.40000   0.30000   |    0.97703   0.65135   0.48851    |
 |   645    0.60000   0.40000   0.40000   |    0.97703   0.65135   0.65135    |
 |   646    0.60000   0.40000   0.50000   |    0.97703   0.65135   0.81419    |
 |   647    0.60000   0.40000   0.60000   |    0.97703   0.65135   0.97703    |
 |   648    0.60000   0.40000   0.70000   |    0.97703   0.65135   1.13986    |
 |   649    0.60000   0.40000   0.80000   |    0.97703   0.65135   1.30270    |
 |   650    0.60000   0.40000   0.90000   |    0.97703   0.65135   1.46554    |
 |   651    0.60000   0.50000   0.00000   |    0.97703   0.81419   0.00000    |
 |   652    0.60000   0.50000   0.10000   |    0.97703   0.81419   0.16284    |
 |   653    0.60000   0.50000   0.20000   |    0.97703   0.81419   0.32568    |
 |   654    0.60000   0.50000   0.30000   |    0.97703   0.81419   0.48851    |
 |   655    0.60000   0.50000   0.40000   |    0.97703   0.81419   0.65135    |
 |   656    0.60000   0.50000   0.50000   |    0.97703   0.81419   0.81419    |
 |   657    0.60000   0.50000   0.60000   |    0.97703   0.81419   0.97703    |
 |   658    0.60000   0.50000   0.70000   |    0.97703   0.81419   1.13986    |
 |   659    0.60000   0.50000   0.80000   |    0.97703   0.81419   1.30270    |
 |   660    0.60000   0.50000   0.90000   |    0.97703   0.81419   1.46554    |
 |   661    0.60000   0.60000   0.00000   |    0.97703   0.97703   0.00000    |
 |   662    0.60000   0.60000   0.10000   |    0.97703   0.97703   0.16284    |
 |   663    0.60000   0.60000   0.20000   |    0.97703   0.97703   0.32568    |
 |   664    0.60000   0.60000   0.30000   |    0.97703   0.97703   0.48851    |
 |   665    0.60000   0.60000   0.40000   |    0.97703   0.97703   0.65135    |
 |   666    0.60000   0.60000   0.50000   |    0.97703   0.97703   0.81419    |
 |   667    0.60000   0.60000   0.60000   |    0.97703   0.97703   0.97703    |
 |   668    0.60000   0.60000   0.70000   |    0.97703   0.97703   1.13986    |
 |   669    0.60000   0.60000   0.80000   |    0.97703   0.97703   1.30270    |
 |   670    0.60000   0.60000   0.90000   |    0.97703   0.97703   1.46554    |
 |   671    0.60000   0.70000   0.00000   |    0.97703   1.13986   0.00000    |
 |   672    0.60000   0.70000   0.10000   |    0.97703   1.13986   0.16284    |
 |   673    0.60000   0.70000   0.20000   |    0.97703   1.13986   0.32568    |
 |   674    0.60000   0.70000   0.30000   |    0.97703   1.13986   0.48851    |
 |   675    0.60000   0.70000   0.40000   |    0.97703   1.13986   0.65135    |
 |   676    0.60000   0.70000   0.50000   |    0.97703   1.13986   0.81419    |
 |   677    0.60000   0.70000   0.60000   |    0.97703   1.13986   0.97703    |
 |   678    0.60000   0.70000   0.70000   |    0.97703   1.13986   1.13986    |
 |   679    0.60000   0.70000   0.80000   |    0.97703   1.13986   1.30270    |
 |   680    0.60000   0.70000   0.90000   |    0.97703   1.13986   1.46554    |
 |   681    0.60000   0.80000   0.00000   |    0.97703   1.30270   0.00000    |
 |   682    0.60000   0.80000   0.10000   |    0.97703   1.30270   0.16284    |
 |   683    0.60000   0.80000   0.20000   |    0.97703   1.30270   0.32568    |
 |   684    0.60000   0.80000   0.30000   |    0.97703   1.30270   0.48851    |
 |   685    0.60000   0.80000   0.40000   |    0.97703   1.30270   0.65135    |
 |   686    0.60000   0.80000   0.50000   |    0.97703   1.30270   0.81419    |
 |   687    0.60000   0.80000   0.60000   |    0.97703   1.30270   0.97703    |
 |   688    0.60000   0.80000   0.70000   |    0.97703   1.30270   1.13986    |
 |   689    0.60000   0.80000   0.80000   |    0.97703   1.30270   1.30270    |
 |   690    0.60000   0.80000   0.90000   |    0.97703   1.30270   1.46554    |
 |   691    0.60000   0.90000   0.00000   |    0.97703   1.46554   0.00000    |
 |   692    0.60000   0.90000   0.10000   |    0.97703   1.46554   0.16284    |
 |   693    0.60000   0.90000   0.20000   |    0.97703   1.46554   0.32568    |
 |   694    0.60000   0.90000   0.30000   |    0.97703   1.46554   0.48851    |
 |   695    0.60000   0.90000   0.40000   |    0.97703   1.46554   0.65135    |
 |   696    0.60000   0.90000   0.50000   |    0.97703   1.46554   0.81419    |
 |   697    0.60000   0.90000   0.60000   |    0.97703   1.46554   0.97703    |
 |   698    0.60000   0.90000   0.70000   |    0.97703   1.46554   1.13986    |
 |   699    0.60000   0.90000   0.80000   |    0.97703   1.46554   1.30270    |
 |   700    0.60000   0.90000   0.90000   |    0.97703   1.46554   1.46554    |
 |   701    0.70000   0.00000   0.00000   |    1.13986   0.00000   0.00000    |
 |   702    0.70000   0.00000   0.10000   |    1.13986   0.00000   0.16284    |
 |   703    0.70000   0.00000   0.20000   |    1.13986   0.00000   0.32568    |
 |   704    0.70000   0.00000   0.30000   |    1.13986   0.00000   0.48851    |
 |   705    0.70000   0.00000   0.40000   |    1.13986   0.00000   0.65135    |
 |   706    0.70000   0.00000   0.50000   |    1.13986   0.00000   0.81419    |
 |   707    0.70000   0.00000   0.60000   |    1.13986   0.00000   0.97703    |
 |   708    0.70000   0.00000   0.70000   |    1.13986   0.00000   1.13986    |
 |   709    0.70000   0.00000   0.80000   |    1.13986   0.00000   1.30270    |
 |   710    0.70000   0.00000   0.90000   |    1.13986   0.00000   1.46554    |
 |   711    0.70000   0.10000   0.00000   |    1.13986   0.16284   0.00000    |
 |   712    0.70000   0.10000   0.10000   |    1.13986   0.16284   0.16284    |
 |   713    0.70000   0.10000   0.20000   |    1.13986   0.16284   0.32568    |
 |   714    0.70000   0.10000   0.30000   |    1.13986   0.16284   0.48851    |
 |   715    0.70000   0.10000   0.40000   |    1.13986   0.16284   0.65135    |
 |   716    0.70000   0.10000   0.50000   |    1.13986   0.16284   0.81419    |
 |   717    0.70000   0.10000   0.60000   |    1.13986   0.16284   0.97703    |
 |   718    0.70000   0.10000   0.70000   |    1.13986   0.16284   1.13986    |
 |   719    0.70000   0.10000   0.80000   |    1.13986   0.16284   1.30270    |
 |   720    0.70000   0.10000   0.90000   |    1.13986   0.16284   1.46554    |
 |   721    0.70000   0.20000   0.00000   |    1.13986   0.32568   0.00000    |
 |   722    0.70000   0.20000   0.10000   |    1.13986   0.32568   0.16284    |
 |   723    0.70000   0.20000   0.20000   |    1.13986   0.32568   0.32568    |
 |   724    0.70000   0.20000   0.30000   |    1.13986   0.32568   0.48851    |
 |   725    0.70000   0.20000   0.40000   |    1.13986   0.32568   0.65135    |
 |   726    0.70000   0.20000   0.50000   |    1.13986   0.32568   0.81419    |
 |   727    0.70000   0.20000   0.60000   |    1.13986   0.32568   0.97703    |
 |   728    0.70000   0.20000   0.70000   |    1.13986   0.32568   1.13986    |
 |   729    0.70000   0.20000   0.80000   |    1.13986   0.32568   1.30270    |
 |   730    0.70000   0.20000   0.90000   |    1.13986   0.32568   1.46554    |
 |   731    0.70000   0.30000   0.00000   |    1.13986   0.48851   0.00000    |
 |   732    0.70000   0.30000   0.10000   |    1.13986   0.48851   0.16284    |
 |   733    0.70000   0.30000   0.20000   |    1.13986   0.48851   0.32568    |
 |   734    0.70000   0.30000   0.30000   |    1.13986   0.48851   0.48851    |
 |   735    0.70000   0.30000   0.40000   |    1.13986   0.48851   0.65135    |
 |   736    0.70000   0.30000   0.50000   |    1.13986   0.48851   0.81419    |
 |   737    0.70000   0.30000   0.60000   |    1.13986   0.48851   0.97703    |
 |   738    0.70000   0.30000   0.70000   |    1.13986   0.48851   1.13986    |
 |   739    0.70000   0.30000   0.80000   |    1.13986   0.48851   1.30270    |
 |   740    0.70000   0.30000   0.90000   |    1.13986   0.48851   1.46554    |
 |   741    0.70000   0.40000   0.00000   |    1.13986   0.65135   0.00000    |
 |   742    0.70000   0.40000   0.10000   |    1.13986   0.65135   0.16284    |
 |   743    0.70000   0.40000   0.20000   |    1.13986   0.65135   0.32568    |
 |   744    0.70000   0.40000   0.30000   |    1.13986   0.65135   0.48851    |
 |   745    0.70000   0.40000   0.40000   |    1.13986   0.65135   0.65135    |
 |   746    0.70000   0.40000   0.50000   |    1.13986   0.65135   0.81419    |
 |   747    0.70000   0.40000   0.60000   |    1.13986   0.65135   0.97703    |
 |   748    0.70000   0.40000   0.70000   |    1.13986   0.65135   1.13986    |
 |   749    0.70000   0.40000   0.80000   |    1.13986   0.65135   1.30270    |
 |   750    0.70000   0.40000   0.90000   |    1.13986   0.65135   1.46554    |
 |   751    0.70000   0.50000   0.00000   |    1.13986   0.81419   0.00000    |
 |   752    0.70000   0.50000   0.10000   |    1.13986   0.81419   0.16284    |
 |   753    0.70000   0.50000   0.20000   |    1.13986   0.81419   0.32568    |
 |   754    0.70000   0.50000   0.30000   |    1.13986   0.81419   0.48851    |
 |   755    0.70000   0.50000   0.40000   |    1.13986   0.81419   0.65135    |
 |   756    0.70000   0.50000   0.50000   |    1.13986   0.81419   0.81419    |
 |   757    0.70000   0.50000   0.60000   |    1.13986   0.81419   0.97703    |
 |   758    0.70000   0.50000   0.70000   |    1.13986   0.81419   1.13986    |
 |   759    0.70000   0.50000   0.80000   |    1.13986   0.81419   1.30270    |
 |   760    0.70000   0.50000   0.90000   |    1.13986   0.81419   1.46554    |
 |   761    0.70000   0.60000   0.00000   |    1.13986   0.97703   0.00000    |
 |   762    0.70000   0.60000   0.10000   |    1.13986   0.97703   0.16284    |
 |   763    0.70000   0.60000   0.20000   |    1.13986   0.97703   0.32568    |
 |   764    0.70000   0.60000   0.30000   |    1.13986   0.97703   0.48851    |
 |   765    0.70000   0.60000   0.40000   |    1.13986   0.97703   0.65135    |
 |   766    0.70000   0.60000   0.50000   |    1.13986   0.97703   0.81419    |
 |   767    0.70000   0.60000   0.60000   |    1.13986   0.97703   0.97703    |
 |   768    0.70000   0.60000   0.70000   |    1.13986   0.97703   1.13986    |
 |   769    0.70000   0.60000   0.80000   |    1.13986   0.97703   1.30270    |
 |   770    0.70000   0.60000   0.90000   |    1.13986   0.97703   1.46554    |
 |   771    0.70000   0.70000   0.00000   |    1.13986   1.13986   0.00000    |
 |   772    0.70000   0.70000   0.10000   |    1.13986   1.13986   0.16284    |
 |   773    0.70000   0.70000   0.20000   |    1.13986   1.13986   0.32568    |
 |   774    0.70000   0.70000   0.30000   |    1.13986   1.13986   0.48851    |
 |   775    0.70000   0.70000   0.40000   |    1.13986   1.13986   0.65135    |
 |   776    0.70000   0.70000   0.50000   |    1.13986   1.13986   0.81419    |
 |   777    0.70000   0.70000   0.60000   |    1.13986   1.13986   0.97703    |
 |   778    0.70000   0.70000   0.70000   |    1.13986   1.13986   1.13986    |
 |   779    0.70000   0.70000   0.80000   |    1.13986   1.13986   1.30270    |
 |   780    0.70000   0.70000   0.90000   |    1.13986   1.13986   1.46554    |
 |   781    0.70000   0.80000   0.00000   |    1.13986   1.30270   0.00000    |
 |   782    0.70000   0.80000   0.10000   |    1.13986   1.30270   0.16284    |
 |   783    0.70000   0.80000   0.20000   |    1.13986   1.30270   0.32568    |
 |   784    0.70000   0.80000   0.30000   |    1.13986   1.30270   0.48851    |
 |   785    0.70000   0.80000   0.40000   |    1.13986   1.30270   0.65135    |
 |   786    0.70000   0.80000   0.50000   |    1.13986   1.30270   0.81419    |
 |   787    0.70000   0.80000   0.60000   |    1.13986   1.30270   0.97703    |
 |   788    0.70000   0.80000   0.70000   |    1.13986   1.30270   1.13986    |
 |   789    0.70000   0.80000   0.80000   |    1.13986   1.30270   1.30270    |
 |   790    0.70000   0.80000   0.90000   |    1.13986   1.30270   1.46554    |
 |   791    0.70000   0.90000   0.00000   |    1.13986   1.46554   0.00000    |
 |   792    0.70000   0.90000   0.10000   |    1.13986   1.46554   0.16284    |
 |   793    0.70000   0.90000   0.20000   |    1.13986   1.46554   0.32568    |
 |   794    0.70000   0.90000   0.30000   |    1.13986   1.46554   0.48851    |
 |   795    0.70000   0.90000   0.40000   |    1.13986   1.46554   0.65135    |
 |   796    0.70000   0.90000   0.50000   |    1.13986   1.46554   0.81419    |
 |   797    0.70000   0.90000   0.60000   |    1.13986   1.46554   0.97703    |
 |   798    0.70000   0.90000   0.70000   |    1.13986   1.46554   1.13986    |
 |   799    0.70000   0.90000   0.80000   |    1.13986   1.46554   1.30270    |
 |   800    0.70000   0.90000   0.90000   |    1.13986   1.46554   1.46554    |
 |   801    0.80000   0.00000   0.00000   |    1.30270   0.00000   0.00000    |
 |   802    0.80000   0.00000   0.10000   |    1.30270   0.00000   0.16284    |
 |   803    0.80000   0.00000   0.20000   |    1.30270   0.00000   0.32568    |
 |   804    0.80000   0.00000   0.30000   |    1.30270   0.00000   0.48851    |
 |   805    0.80000   0.00000   0.40000   |    1.30270   0.00000   0.65135    |
 |   806    0.80000   0.00000   0.50000   |    1.30270   0.00000   0.81419    |
 |   807    0.80000   0.00000   0.60000   |    1.30270   0.00000   0.97703    |
 |   808    0.80000   0.00000   0.70000   |    1.30270   0.00000   1.13986    |
 |   809    0.80000   0.00000   0.80000   |    1.30270   0.00000   1.30270    |
 |   810    0.80000   0.00000   0.90000   |    1.30270   0.00000   1.46554    |
 |   811    0.80000   0.10000   0.00000   |    1.30270   0.16284   0.00000    |
 |   812    0.80000   0.10000   0.10000   |    1.30270   0.16284   0.16284    |
 |   813    0.80000   0.10000   0.20000   |    1.30270   0.16284   0.32568    |
 |   814    0.80000   0.10000   0.30000   |    1.30270   0.16284   0.48851    |
 |   815    0.80000   0.10000   0.40000   |    1.30270   0.16284   0.65135    |
 |   816    0.80000   0.10000   0.50000   |    1.30270   0.16284   0.81419    |
 |   817    0.80000   0.10000   0.60000   |    1.30270   0.16284   0.97703    |
 |   818    0.80000   0.10000   0.70000   |    1.30270   0.16284   1.13986    |
 |   819    0.80000   0.10000   0.80000   |    1.30270   0.16284   1.30270    |
 |   820    0.80000   0.10000   0.90000   |    1.30270   0.16284   1.46554    |
 |   821    0.80000   0.20000   0.00000   |    1.30270   0.32568   0.00000    |
 |   822    0.80000   0.20000   0.10000   |    1.30270   0.32568   0.16284    |
 |   823    0.80000   0.20000   0.20000   |    1.30270   0.32568   0.32568    |
 |   824    0.80000   0.20000   0.30000   |    1.30270   0.32568   0.48851    |
 |   825    0.80000   0.20000   0.40000   |    1.30270   0.32568   0.65135    |
 |   826    0.80000   0.20000   0.50000   |    1.30270   0.32568   0.81419    |
 |   827    0.80000   0.20000   0.60000   |    1.30270   0.32568   0.97703    |
 |   828    0.80000   0.20000   0.70000   |    1.30270   0.32568   1.13986    |
 |   829    0.80000   0.20000   0.80000   |    1.30270   0.32568   1.30270    |
 |   830    0.80000   0.20000   0.90000   |    1.30270   0.32568   1.46554    |
 |   831    0.80000   0.30000   0.00000   |    1.30270   0.48851   0.00000    |
 |   832    0.80000   0.30000   0.10000   |    1.30270   0.48851   0.16284    |
 |   833    0.80000   0.30000   0.20000   |    1.30270   0.48851   0.32568    |
 |   834    0.80000   0.30000   0.30000   |    1.30270   0.48851   0.48851    |
 |   835    0.80000   0.30000   0.40000   |    1.30270   0.48851   0.65135    |
 |   836    0.80000   0.30000   0.50000   |    1.30270   0.48851   0.81419    |
 |   837    0.80000   0.30000   0.60000   |    1.30270   0.48851   0.97703    |
 |   838    0.80000   0.30000   0.70000   |    1.30270   0.48851   1.13986    |
 |   839    0.80000   0.30000   0.80000   |    1.30270   0.48851   1.30270    |
 |   840    0.80000   0.30000   0.90000   |    1.30270   0.48851   1.46554    |
 |   841    0.80000   0.40000   0.00000   |    1.30270   0.65135   0.00000    |
 |   842    0.80000   0.40000   0.10000   |    1.30270   0.65135   0.16284    |
 |   843    0.80000   0.40000   0.20000   |    1.30270   0.65135   0.32568    |
 |   844    0.80000   0.40000   0.30000   |    1.30270   0.65135   0.48851    |
 |   845    0.80000   0.40000   0.40000   |    1.30270   0.65135   0.65135    |
 |   846    0.80000   0.40000   0.50000   |    1.30270   0.65135   0.81419    |
 |   847    0.80000   0.40000   0.60000   |    1.30270   0.65135   0.97703    |
 |   848    0.80000   0.40000   0.70000   |    1.30270   0.65135   1.13986    |
 |   849    0.80000   0.40000   0.80000   |    1.30270   0.65135   1.30270    |
 |   850    0.80000   0.40000   0.90000   |    1.30270   0.65135   1.46554    |
 |   851    0.80000   0.50000   0.00000   |    1.30270   0.81419   0.00000    |
 |   852    0.80000   0.50000   0.10000   |    1.30270   0.81419   0.16284    |
 |   853    0.80000   0.50000   0.20000   |    1.30270   0.81419   0.32568    |
 |   854    0.80000   0.50000   0.30000   |    1.30270   0.81419   0.48851    |
 |   855    0.80000   0.50000   0.40000   |    1.30270   0.81419   0.65135    |
 |   856    0.80000   0.50000   0.50000   |    1.30270   0.81419   0.81419    |
 |   857    0.80000   0.50000   0.60000   |    1.30270   0.81419   0.97703    |
 |   858    0.80000   0.50000   0.70000   |    1.30270   0.81419   1.13986    |
 |   859    0.80000   0.50000   0.80000   |    1.30270   0.81419   1.30270    |
 |   860    0.80000   0.50000   0.90000   |    1.30270   0.81419   1.46554    |
 |   861    0.80000   0.60000   0.00000   |    1.30270   0.97703   0.00000    |
 |   862    0.80000   0.60000   0.10000   |    1.30270   0.97703   0.16284    |
 |   863    0.80000   0.60000   0.20000   |    1.30270   0.97703   0.32568    |
 |   864    0.80000   0.60000   0.30000   |    1.30270   0.97703   0.48851    |
 |   865    0.80000   0.60000   0.40000   |    1.30270   0.97703   0.65135    |
 |   866    0.80000   0.60000   0.50000   |    1.30270   0.97703   0.81419    |
 |   867    0.80000   0.60000   0.60000   |    1.30270   0.97703   0.97703    |
 |   868    0.80000   0.60000   0.70000   |    1.30270   0.97703   1.13986    |
 |   869    0.80000   0.60000   0.80000   |    1.30270   0.97703   1.30270    |
 |   870    0.80000   0.60000   0.90000   |    1.30270   0.97703   1.46554    |
 |   871    0.80000   0.70000   0.00000   |    1.30270   1.13986   0.00000    |
 |   872    0.80000   0.70000   0.10000   |    1.30270   1.13986   0.16284    |
 |   873    0.80000   0.70000   0.20000   |    1.30270   1.13986   0.32568    |
 |   874    0.80000   0.70000   0.30000   |    1.30270   1.13986   0.48851    |
 |   875    0.80000   0.70000   0.40000   |    1.30270   1.13986   0.65135    |
 |   876    0.80000   0.70000   0.50000   |    1.30270   1.13986   0.81419    |
 |   877    0.80000   0.70000   0.60000   |    1.30270   1.13986   0.97703    |
 |   878    0.80000   0.70000   0.70000   |    1.30270   1.13986   1.13986    |
 |   879    0.80000   0.70000   0.80000   |    1.30270   1.13986   1.30270    |
 |   880    0.80000   0.70000   0.90000   |    1.30270   1.13986   1.46554    |
 |   881    0.80000   0.80000   0.00000   |    1.30270   1.30270   0.00000    |
 |   882    0.80000   0.80000   0.10000   |    1.30270   1.30270   0.16284    |
 |   883    0.80000   0.80000   0.20000   |    1.30270   1.30270   0.32568    |
 |   884    0.80000   0.80000   0.30000   |    1.30270   1.30270   0.48851    |
 |   885    0.80000   0.80000   0.40000   |    1.30270   1.30270   0.65135    |
 |   886    0.80000   0.80000   0.50000   |    1.30270   1.30270   0.81419    |
 |   887    0.80000   0.80000   0.60000   |    1.30270   1.30270   0.97703    |
 |   888    0.80000   0.80000   0.70000   |    1.30270   1.30270   1.13986    |
 |   889    0.80000   0.80000   0.80000   |    1.30270   1.30270   1.30270    |
 |   890    0.80000   0.80000   0.90000   |    1.30270   1.30270   1.46554    |
 |   891    0.80000   0.90000   0.00000   |    1.30270   1.46554   0.00000    |
 |   892    0.80000   0.90000   0.10000   |    1.30270   1.46554   0.16284    |
 |   893    0.80000   0.90000   0.20000   |    1.30270   1.46554   0.32568    |
 |   894    0.80000   0.90000   0.30000   |    1.30270   1.46554   0.48851    |
 |   895    0.80000   0.90000   0.40000   |    1.30270   1.46554   0.65135    |
 |   896    0.80000   0.90000   0.50000   |    1.30270   1.46554   0.81419    |
 |   897    0.80000   0.90000   0.60000   |    1.30270   1.46554   0.97703    |
 |   898    0.80000   0.90000   0.70000   |    1.30270   1.46554   1.13986    |
 |   899    0.80000   0.90000   0.80000   |    1.30270   1.46554   1.30270    |
 |   900    0.80000   0.90000   0.90000   |    1.30270   1.46554   1.46554    |
 |   901    0.90000   0.00000   0.00000   |    1.46554   0.00000   0.00000    |
[...]
 |            12                   0.587119                     24            |
 |            13                   0.609282                     48            |
 |            14                   0.651350                      6            |
 |            15                   0.671397                     48            |
 |            16                   0.690861                     36            |
 |            17                   0.709793                     24            |
 |            18                   0.728232                     24            |
 |            19                   0.746216                     48            |
 |            20                   0.763776                     24            |
 |            21                   0.797738                     24            |
 |            22                   0.814188                     30            |
 |            23                   0.830312                     72            |
 |            24                   0.846129                     32            |
 |            25                   0.876907                     72            |
 |            26                   0.891898                     48            |
 |            27                   0.921148                     12            |
 |            28                   0.935431                     48            |
 |            29                   0.949498                     48            |
 |            30                   0.963360                     48            |
 |            31                   0.977025                     30            |
 |            32                   0.990502                     24            |
 |            33                   1.003798                     72            |
 |            34                   1.029875                     24            |
 |            35                   1.042669                     96            |
 |            36                   1.055308                     48            |
 +----------------------------------------------------------------------------+
 | The b-vectors are chosen automatically                                     |
 | Shell:  1 w_b   18.8564843      (Ang^2)                                    |
 | The following shells are used:   1                                         |
 +----------------------------------------------------------------------------+
 |                        Shell   # Nearest-Neighbours                        |
 |                        -----   --------------------                        |
 |                          1               6                                 |
 +----------------------------------------------------------------------------+
 | Completeness relation is fully satisfied [Eq. (B1), PRB 56, 12847 (1997)]  |
 +----------------------------------------------------------------------------+
 |                  b_k Vectors (Ang^-1) and Weights (Ang^2)                  |
 |                  ----------------------------------------                  |
 |            No.         b_k(x)      b_k(y)      b_k(z)        w_b           |
 |            ---        --------------------------------     --------        |
 |             1         0.000000    0.000000    0.162838    18.856484        |
 |             2         0.000000    0.162838    0.000000    18.856484        |
 |             3         0.162838    0.000000    0.000000    18.856484        |
 |             4         0.000000    0.000000   -0.162838    18.856484        |
 |             5         0.000000   -0.162838    0.000000    18.856484        |
 |             6        -0.162838    0.000000    0.000000    18.856484        |
 +----------------------------------------------------------------------------+
 |                           b_k Directions (Ang^-1)                          |
 |                           -----------------------                          |
 |            No.           x           y           z                         |
 |            ---        --------------------------------                     |
 |             1         0.000000    0.000000    0.162838                     |
 |             2         0.000000    0.162838    0.000000                     |
 |             3         0.162838    0.000000    0.000000                     |
 +----------------------------------------------------------------------------+
  
 Time to get kmesh              0.268 (sec)
 *============================================================================*
 |                              MEMORY ESTIMATE                               |
 |         Maximum RAM allocated during each phase of the calculation         |
 *============================================================================*
 |                            Wannierise:            3.20 Mb                  |
 |                                                                            |
 |   N.B. by setting optimisation=0 memory usage will be reduced to:          |
 |                            Wannierise:            2.37 Mb                  |
 |   However, this will result in more i/o and slow down the calculation      |
 |                          plot_wannier:            3.20 Mb                  |
 *----------------------------------------------------------------------------*
  
 Starting a new Wannier90 calculation ...


 Reading overlaps from svo.mmn    :  Created on 19Jun2022 at 11:38:11

 Reading projections from svo.amn :  Created on 19Jun2022 at 11:37:31

 Time to read overlaps          0.066 (sec)

 Writing checkpoint file svo.chk... done


 *------------------------------- WANNIERISE ---------------------------------*
 +--------------------------------------------------------------------+<-- CONV
 | Iter  Delta Spread     RMS Gradient      Spread (Ang^2)      Time  |<-- CONV
 +--------------------------------------------------------------------+<-- CONV

 ------------------------------------------------------------------------------
 Initial State
  WF centre and spread    1  (  1.929280,  1.929280,  1.929280 )     1.91806151
  WF centre and spread    2  (  1.929280,  1.929280,  1.929280 )     1.91806151
  WF centre and spread    3  (  1.929280,  1.929280,  1.929280 )     1.91806150
  Sum of centres and spreads (  5.787840,  5.787840,  5.787840 )     5.75418452

      0     0.575E+01     0.0000000000        5.7541845179       0.00  <-- CONV
        O_D=      0.0000000 O_OD=      0.0060853 O_TOT=      5.7541845 <-- SPRD
 ------------------------------------------------------------------------------
 Cycle:      1
  WF centre and spread    1  (  1.929280,  1.929280,  1.929280 )     1.91801212
  WF centre and spread    2  (  1.929280,  1.929280,  1.929280 )     1.91801212
  WF centre and spread    3  (  1.929280,  1.929280,  1.929280 )     1.91801211
  Sum of centres and spreads (  5.787840,  5.787840,  5.787840 )     5.75403635

      1    -0.148E-03     0.0073884327        5.7540363521       0.02  <-- CONV
        O_D=      0.0000000 O_OD=      0.0059372 O_TOT=      5.7540364 <-- SPRD
 Delta: O_D=  0.5679247E-14 O_OD= -0.1481658E-03 O_TOT= -0.1481658E-03 <-- DLTA
 ------------------------------------------------------------------------------
 Cycle:      2
  WF centre and spread    1  (  1.929280,  1.929280,  1.929280 )     1.91800458
  WF centre and spread    2  (  1.929280,  1.929280,  1.929280 )     1.91800459
  WF centre and spread    3  (  1.929280,  1.929280,  1.929280 )     1.91800458
  Sum of centres and spreads (  5.787840,  5.787840,  5.787840 )     5.75401374

      2    -0.226E-04     0.0038721565        5.7540137431       0.05  <-- CONV
        O_D=      0.0000000 O_OD=      0.0059145 O_TOT=      5.7540137 <-- SPRD
 Delta: O_D= -0.2221722E-14 O_OD= -0.2260903E-04 O_TOT= -0.2260903E-04 <-- DLTA
 ------------------------------------------------------------------------------
 Cycle:      3
  WF centre and spread    1  (  1.929280,  1.929280,  1.929280 )     1.91800376
  WF centre and spread    2  (  1.929280,  1.929280,  1.929280 )     1.91800377
  WF centre and spread    3  (  1.929280,  1.929280,  1.929280 )     1.91800376
  Sum of centres and spreads (  5.787840,  5.787840,  5.787840 )     5.75401129

      3    -0.245E-05     0.0013459734        5.7540112928       0.07  <-- CONV
        O_D=      0.0000000 O_OD=      0.0059121 O_TOT=      5.7540113 <-- SPRD
 Delta: O_D= -0.1203901E-14 O_OD= -0.2450264E-05 O_TOT= -0.2450264E-05 <-- DLTA
 ------------------------------------------------------------------------------
 Cycle:      4
  WF centre and spread    1  (  1.929280,  1.929280,  1.929280 )     1.91800367
  WF centre and spread    2  (  1.929280,  1.929280,  1.929280 )     1.91800368
  WF centre and spread    3  (  1.929280,  1.929280,  1.929280 )     1.91800367
  Sum of centres and spreads (  5.787840,  5.787840,  5.787840 )     5.75401101

      4    -0.284E-06     0.0004597220        5.7540110093       0.09  <-- CONV
        O_D=      0.0000000 O_OD=      0.0059118 O_TOT=      5.7540110 <-- SPRD
 Delta: O_D= -0.2915086E-15 O_OD= -0.2835297E-06 O_TOT= -0.2835297E-06 <-- DLTA
 ------------------------------------------------------------------------------
 Cycle:      5
  WF centre and spread    1  (  1.929280,  1.929280,  1.929280 )     1.91800365
  WF centre and spread    2  (  1.929280,  1.929280,  1.929280 )     1.91800366
  WF centre and spread    3  (  1.929280,  1.929280,  1.929280 )     1.91800365
  Sum of centres and spreads (  5.787840,  5.787840,  5.787840 )     5.75401096

      5    -0.492E-07     0.0001989041        5.7540109601       0.11  <-- CONV
        O_D=      0.0000000 O_OD=      0.0059118 O_TOT=      5.7540110 <-- SPRD
 Delta: O_D= -0.1741574E-14 O_OD= -0.4917957E-07 O_TOT= -0.4917957E-07 <-- DLTA
 ------------------------------------------------------------------------------
 Cycle:      6
  WF centre and spread    1  (  1.929280,  1.929280,  1.929280 )     1.91800365
  WF centre and spread    2  (  1.929280,  1.929280,  1.929280 )     1.91800366
  WF centre and spread    3  (  1.929280,  1.929280,  1.929280 )     1.91800365
  Sum of centres and spreads (  5.787840,  5.787840,  5.787840 )     5.75401095

      6    -0.937E-08     0.0000844302        5.7540109507       0.12  <-- CONV
        O_D=      0.0000000 O_OD=      0.0059118 O_TOT=      5.7540110 <-- SPRD
 Delta: O_D= -0.8357904E-15 O_OD= -0.9372153E-08 O_TOT= -0.9372155E-08 <-- DLTA
 ------------------------------------------------------------------------------
 Cycle:      7
  WF centre and spread    1  (  1.929280,  1.929280,  1.929280 )     1.91800365
  WF centre and spread    2  (  1.929280,  1.929280,  1.929280 )     1.91800366
  WF centre and spread    3  (  1.929280,  1.929280,  1.929280 )     1.91800365
  Sum of centres and spreads (  5.787840,  5.787840,  5.787840 )     5.75401095

      7    -0.137E-08     0.0000328561        5.7540109494       0.14  <-- CONV
        O_D=      0.0000000 O_OD=      0.0059118 O_TOT=      5.7540109 <-- SPRD
 Delta: O_D= -0.2517208E-15 O_OD= -0.1370316E-08 O_TOT= -0.1370316E-08 <-- DLTA
 ------------------------------------------------------------------------------
 Cycle:      8
  WF centre and spread    1  (  1.929280,  1.929280,  1.929280 )     1.91800365
  WF centre and spread    2  (  1.929280,  1.929280,  1.929280 )     1.91800366
  WF centre and spread    3  (  1.929280,  1.929280,  1.929280 )     1.91800365
  Sum of centres and spreads (  5.787840,  5.787840,  5.787840 )     5.75401095

      8    -0.124E-11     0.0000155569        5.7540109494       0.15  <-- CONV
        O_D=      0.0000000 O_OD=      0.0059118 O_TOT=      5.7540109 <-- SPRD
 Delta: O_D= -0.6251170E-17 O_OD= -0.1239092E-11 O_TOT= -0.1239009E-11 <-- DLTA
 ------------------------------------------------------------------------------
 Cycle:      9
  WF centre and spread    1  (  1.929280,  1.929280,  1.929280 )     1.91800365
  WF centre and spread    2  (  1.929280,  1.929280,  1.929280 )     1.91800365
  WF centre and spread    3  (  1.929280,  1.929280,  1.929280 )     1.91800365
  Sum of centres and spreads (  5.787840,  5.787840,  5.787840 )     5.75401095

      9    -0.445E-09     0.0000155368        5.7540109489       0.17  <-- CONV
        O_D=      0.0000000 O_OD=      0.0059118 O_TOT=      5.7540109 <-- SPRD
 Delta: O_D=  0.1027478E-14 O_OD= -0.4450541E-09 O_TOT= -0.4450529E-09 <-- DLTA
 ------------------------------------------------------------------------------
 Cycle:     10
  WF centre and spread    1  (  1.929280,  1.929280,  1.929280 )     1.91800365
  WF centre and spread    2  (  1.929280,  1.929280,  1.929280 )     1.91800365
  WF centre and spread    3  (  1.929280,  1.929280,  1.929280 )     1.91800365
  Sum of centres and spreads (  5.787840,  5.787840,  5.787840 )     5.75401095

     10    -0.323E-12     0.0000078354        5.7540109489       0.18  <-- CONV
        O_D=      0.0000000 O_OD=      0.0059118 O_TOT=      5.7540109 <-- SPRD
 Delta: O_D= -0.1108324E-16 O_OD= -0.3232926E-12 O_TOT= -0.3232969E-12 <-- DLTA
 ------------------------------------------------------------------------------
 Cycle:     11
  WF centre and spread    1  (  1.929280,  1.929280,  1.929280 )     1.91800365
  WF centre and spread    2  (  1.929280,  1.929280,  1.929280 )     1.91800365
  WF centre and spread    3  (  1.929280,  1.929280,  1.929280 )     1.91800365
  Sum of centres and spreads (  5.787840,  5.787840,  5.787840 )     5.75401095

     11    -0.592E-12     0.0000078226        5.7540109489       0.19  <-- CONV
        O_D=      0.0000000 O_OD=      0.0059118 O_TOT=      5.7540109 <-- SPRD
 Delta: O_D= -0.2711539E-16 O_OD= -0.5911461E-12 O_TOT= -0.5915268E-12 <-- DLTA
 ------------------------------------------------------------------------------
 Cycle:     12
  WF centre and spread    1  (  1.929280,  1.929280,  1.929280 )     1.91800365
  WF centre and spread    2  (  1.929280,  1.929280,  1.929280 )     1.91800365
  WF centre and spread    3  (  1.929280,  1.929280,  1.929280 )     1.91800365
  Sum of centres and spreads (  5.787840,  5.787840,  5.787840 )     5.75401095

     12    -0.723E-10     0.0000077921        5.7540109488       0.21  <-- CONV
        O_D=      0.0000000 O_OD=      0.0059118 O_TOT=      5.7540109 <-- SPRD
 Delta: O_D= -0.1654396E-14 O_OD= -0.7234658E-10 O_TOT= -0.7234835E-10 <-- DLTA
 ------------------------------------------------------------------------------
 Cycle:     13
  WF centre and spread    1  (  1.929280,  1.929280,  1.929280 )     1.91800365
  WF centre and spread    2  (  1.929280,  1.929280,  1.929280 )     1.91800365
  WF centre and spread    3  (  1.929280,  1.929280,  1.929280 )     1.91800365
  Sum of centres and spreads (  5.787840,  5.787840,  5.787840 )     5.75401095

     13    -0.364E-13     0.0000028827        5.7540109488       0.22  <-- CONV
        O_D=      0.0000000 O_OD=      0.0059118 O_TOT=      5.7540109 <-- SPRD
 Delta: O_D= -0.3182208E-17 O_OD= -0.3685767E-13 O_TOT= -0.3641532E-13 <-- DLTA
 ------------------------------------------------------------------------------
 Cycle:     14
  WF centre and spread    1  (  1.929280,  1.929280,  1.929280 )     1.91800365
  WF centre and spread    2  (  1.929280,  1.929280,  1.929280 )     1.91800365
  WF centre and spread    3  (  1.929280,  1.929280,  1.929280 )     1.91800365
  Sum of centres and spreads (  5.787840,  5.787840,  5.787840 )     5.75401095

     14    -0.737E-13     0.0000028798        5.7540109488       0.23  <-- CONV
        O_D=      0.0000000 O_OD=      0.0059118 O_TOT=      5.7540109 <-- SPRD
 Delta: O_D= -0.6308490E-17 O_OD= -0.7315069E-13 O_TOT= -0.7371881E-13 <-- DLTA
 ------------------------------------------------------------------------------
 Cycle:     15
  WF centre and spread    1  (  1.929280,  1.929280,  1.929280 )     1.91800365
  WF centre and spread    2  (  1.929280,  1.929280,  1.929280 )     1.91800365
  WF centre and spread    3  (  1.929280,  1.929280,  1.929280 )     1.91800365
  Sum of centres and spreads (  5.787840,  5.787840,  5.787840 )     5.75401095

     15    -0.108E-12     0.0000028740        5.7540109488       0.24  <-- CONV
        O_D=      0.0000000 O_OD=      0.0059118 O_TOT=      5.7540109 <-- SPRD
 Delta: O_D= -0.9317900E-17 O_OD= -0.1091462E-12 O_TOT= -0.1083578E-12 <-- DLTA
 ------------------------------------------------------------------------------
 Cycle:     16
  WF centre and spread    1  (  1.929280,  1.929280,  1.929280 )     1.91800365
  WF centre and spread    2  (  1.929280,  1.929280,  1.929280 )     1.91800365
  WF centre and spread    3  (  1.929280,  1.929280,  1.929280 )     1.91800365
  Sum of centres and spreads (  5.787840,  5.787840,  5.787840 )     5.75401095

     16    -0.145E-12     0.0000028653        5.7540109488       0.25  <-- CONV
        O_D=      0.0000000 O_OD=      0.0059118 O_TOT=      5.7540109 <-- SPRD
 Delta: O_D= -0.1215275E-16 O_OD= -0.1442770E-12 O_TOT= -0.1447731E-12 <-- DLTA
 ------------------------------------------------------------------------------
 Cycle:     17
  WF centre and spread    1  (  1.929280,  1.929280,  1.929280 )     1.91800365
  WF centre and spread    2  (  1.929280,  1.929280,  1.929280 )     1.91800365
  WF centre and spread    3  (  1.929280,  1.929280,  1.929280 )     1.91800365
  Sum of centres and spreads (  5.787840,  5.787840,  5.787840 )     5.75401095

     17    -0.179E-12     0.0000028537        5.7540109488       0.26  <-- CONV
        O_D=      0.0000000 O_OD=      0.0059118 O_TOT=      5.7540109 <-- SPRD
 Delta: O_D= -0.1476028E-16 O_OD= -0.1783643E-12 O_TOT= -0.1785239E-12 <-- DLTA
 ------------------------------------------------------------------------------

             <<<     Delta < 1.000E-12  over  5 iterations     >>>
             <<< Wannierisation convergence criteria satisfied >>>

 Final State
  WF centre and spread    1  (  1.929280,  1.929280,  1.929280 )     1.91800365
  WF centre and spread    2  (  1.929280,  1.929280,  1.929280 )     1.91800365
  WF centre and spread    3  (  1.929280,  1.929280,  1.929280 )     1.91800365
  Sum of centres and spreads (  5.787840,  5.787840,  5.787840 )     5.75401095

         Spreads (Ang^2)       Omega I      =     5.748099198
        ================       Omega D      =     0.000000000
                               Omega OD     =     0.005911751
    Final Spread (Ang^2)       Omega Total  =     5.754010949
 ------------------------------------------------------------------------------
 Time for wannierise            0.268 (sec)

 Writing checkpoint file svo.chk... done

 *---------------------------------------------------------------------------*
 |                               PLOTTING                                    |
 *---------------------------------------------------------------------------*


 Calculating interpolated band-structure

 Time to calculate interpolated band structure       0.376 (sec)

 Time for plotting              0.719 (sec)
 Total Execution Time           1.396 (sec)

 *===========================================================================*
 |                             TIMING INFORMATION                            |
 *===========================================================================*
 |    Tag                                                Ncalls      Time (s)|
 |---------------------------------------------------------------------------|
 |kmesh: get                                        :         1         0.268|
 |overlap: allocate                                 :         1         0.001|
 |overlap: read                                     :         1         0.065|
 |wann: main                                        :         1         0.268|
 |plot: main                                        :         1         0.719|
 *---------------------------------------------------------------------------*

 All done: wannier90 exiting
